SPECGRID
  20  15  8   1  F  /

GDORIENT
INC INC INC DOWN LEFT /

COORD
      454.875       318.500    7699.979       454.875       318.500    8134.499
     1378.281       318.500    7699.920      1378.281       318.500    8129.240
     2301.688       318.500    7699.735      2301.688       318.500    8124.718
     3225.094       318.500    7699.223      3225.094       318.500    8120.389
     4148.500       318.500    7698.072      4148.500       318.500    8116.094
     5071.906       318.500    7695.658      5071.906       318.500    8114.545
     5995.312       318.500    7691.388      5995.312       318.500    8109.888
     6918.719       318.500    7684.869      6918.719       318.500    8100.869
     7554.625       318.500    7678.914      7554.625       318.500    8092.708
     8190.562       318.500    7672.234      8190.562       318.500    8084.752
     8826.469       318.500    7665.669      8826.469       318.500    8078.004
     9462.406       318.500    7660.328      9462.406       318.500    8073.016
    10183.844       318.500    7661.166     10183.844       318.500    8074.725
    10880.719       318.500    7695.763     10880.719       318.500    8111.056
    11663.125       318.500    7696.506     11663.125       318.500    8114.922
    12445.500       318.500    7697.266     12445.500       318.500    8120.503
    13227.906       318.500    7697.995     13227.906       318.500    8126.803
    14010.281       318.500    7698.631     14010.281       318.500    8134.064
    15420.406       318.500    7699.415     15420.406       318.500    8147.980
    17012.500       318.500    7699.829     17012.500       318.500    8159.629
    18923.000       318.500    7699.972     18923.000       318.500    8169.301
      454.875      2093.500    7699.697       454.875      2093.500    8138.921
     1378.281      2093.500    7698.844      1378.281      2093.500    8134.303
     2301.688      2093.500    7696.122      2301.688      2093.500    8128.540
     3225.094      2093.500    7688.775      3225.094      2093.500    8118.003
     4148.500      2093.500    7672.649      4148.500      2093.500    8097.387
     5071.906      2093.500    7643.593      5071.906      2093.500    8061.614
     5995.312      2093.500    7602.703      5995.312      2093.500    8016.167
     6918.719      2093.500    7555.167      6918.719      2093.500    7967.067
     7554.656      2093.500    7522.612      7554.656      2093.500    7932.946
     8190.562      2093.500    7493.249      8190.562      2093.500    7902.320
     8826.469      2093.500    7468.143      8826.469      2093.500    7876.152
     9462.406      2093.500    7448.854      9462.406      2093.500    7854.552
    10183.844      2093.500    7433.136     10183.844      2093.500    8051.032
    10880.719      2093.500    7650.554     10880.719      2093.500    8058.343
    11663.125      2093.500    7657.780     11663.125      2093.500    8069.716
    12445.500      2093.500    7665.964     12445.500      2093.500    8084.294
    13227.906      2093.500    7674.298     13227.906      2093.500    8100.127
    14010.281      2093.500    7681.972     14010.281      2093.500    8114.104
    15420.406      2093.500    7692.101     15420.406      2093.500    8136.492
    17012.500      2093.500    7697.670     17012.500      2093.500    8155.916
    18923.000      2093.500    7699.630     18923.000      2093.500    8171.692
      454.875      3641.000    7698.134       454.875      3641.000    8141.568
     1378.281      3641.000    7692.787      1378.281      3641.000    8132.438
     2301.688      3641.000    7676.099      2301.688      3641.000    8112.509
     3225.094      3641.000    7635.392      3225.094      3641.000    8067.918
     4148.500      3641.000    7567.396      4148.500      3641.000    7993.800
     5071.906      3641.000    7487.915      5071.906      3641.000    7906.597
     5995.312      3641.000    7423.913      5995.312      3641.000    7834.939
     6918.719      3641.000    7380.215      6918.719      3641.000    7785.015
     7554.656      3641.000    7352.973      7554.656      3641.000    7756.644
     8190.562      3641.000    7330.895      8190.562      3641.000    7732.688
     8826.469      3641.000    7318.934      8826.469      3641.000    7718.540
     9462.406      3641.000    7308.133      9462.406      3641.000    7706.215
    10183.844      3641.000    7315.271     10183.844      3641.000    7902.969
    10880.719      3641.000    7512.453     10880.719      3641.000    7912.700
    11663.125      3641.000    7529.913     11663.125      3641.000    7935.367
    12445.500      3641.000    7551.230     12445.500      3641.000    7963.713
    13227.906      3641.000    7576.640     13227.906      3641.000    7997.962
    14010.281      3641.000    7606.153     14010.281      3641.000    8034.533
    15420.406      3641.000    7653.892     15420.406      3641.000    8094.833
    17012.500      3641.000    7685.698     17012.500      3641.000    8140.636
    18923.000      3641.000    7697.702     18923.000      3641.000    8168.888
      454.875      4349.500    7696.494       454.875      4349.500    8142.089
     1378.281      4349.500    7686.380      1378.281      4349.500    8128.267
     2301.688      4349.500    7655.646      2301.688      4349.500    8093.947
     3225.094      4349.500    7587.687      3225.094      4349.500    8021.153
     4148.500      4349.500    7496.590      4148.500      4349.500    7923.426
     5071.906      4349.500    7421.158      5071.906      4349.500    7841.265
     5995.312      4349.500    7359.410      5995.312      4349.500    7772.076
     6918.719      4349.500    7316.107      6918.719      4349.500    7720.789
     7554.656      4349.500    7290.706      7554.656      4349.500    7691.771
     8190.562      4349.500    7267.266      8190.562      4349.500    7666.512
     8826.469      4349.500    7244.744      8826.469      4349.500    7642.152
     9462.406      4349.500    7233.266      9462.406      4349.500    7629.279
    10183.844      4349.500    7230.758     10183.844      4349.500    7835.740
    10880.719      4349.500    7447.767     10880.719      4349.500    7845.502
    11663.125      4349.500    7463.194     11663.125      4349.500    7865.529
    12445.500      4349.500    7483.178     12445.500      4349.500    7892.313
    13227.906      4349.500    7509.848     13227.906      4349.500    7926.972
    14010.281      4349.500    7546.386     14010.281      4349.500    7971.581
    15420.406      4349.500    7615.521     15420.406      4349.500    8054.396
    17012.500      4349.500    7672.118     17012.500      4349.500    8126.889
    18923.000      4349.500    7695.379     18923.000      4349.500    8165.698
      454.875      5058.500    7693.653       454.875      5058.500    8141.521
     1378.281      5058.500    7676.304      1378.281      5058.500    8120.945
     2301.688      5058.500    7627.904      2301.688      5058.500    8068.582
     3225.094      5058.500    7536.132      3225.094      5058.500    7970.980
     4148.500      5058.500    7432.167      4148.500      5058.500    7860.557
     5071.906      5058.500    7365.820      5071.906      5058.500    7789.125
     5995.312      5058.500    7311.965      5995.312      5058.500    7727.615
     6918.719      5058.500    7256.369      6918.719      5058.500    7663.428
     7554.656      5058.500    7224.127      7554.656      5058.500    7625.430
     8190.562      5058.500    7199.744      8190.562      5058.500    7596.558
     8826.469      5058.500    7178.951      8826.469      5058.500    7574.543
     9462.406      5058.500    7159.210      9462.406      5058.500    7554.125
    10183.844      5058.500    7152.666     10183.844      5058.500    7785.037
    10880.719      5058.500    7388.450     10880.719      5058.500    7786.043
    11663.125      5058.500    7409.011     11663.125      5058.500    7810.931
    12445.500      5058.500    7430.019     12445.500      5058.500    7837.829
    13227.906      5058.500    7455.786     13227.906      5058.500    7870.578
    14010.281      5058.500    7484.479     14010.281      5058.500    7907.443
    15420.406      5058.500    7567.302     15420.406      5058.500    8005.361
    17012.500      5058.500    7651.616     17012.500      5058.500    8106.047
    18923.000      5058.500    7691.549     18923.000      5058.500    8161.866
      454.875      5767.000    7690.179       454.875      5767.000    8139.621
     1378.281      5767.000    7664.241      1378.281      5767.000    8110.715
     2301.688      5767.000    7598.954      2301.688      5767.000    8041.078
     3225.094      5767.000    7497.652      3225.094      5767.000    7933.388
     4148.500      5767.000    7401.007      4148.500      5767.000    7830.958
     5071.906      5767.000    7329.350      5071.906      5767.000    7756.259
     5995.312      5767.000    7266.179      5995.312      5767.000    7683.983
     6918.719      5767.000    7205.092      6918.719      5767.000    7614.308
     7554.625      5767.000    7169.213      7554.625      5767.000    7572.328
     8190.562      5767.000    7135.928      8190.562      5767.000    7533.960
     8826.469      5767.000    7111.181      8826.469      5767.000    7505.864
     9462.406      5767.000    7094.202      9462.406      5767.000    7488.228
    10183.844      5767.000    7082.906     10183.844      5767.000    7718.241
    10880.719      5767.000    7331.122     10880.719      5767.000    7728.307
    11663.125      5767.000    7350.849     11663.125      5767.000    7752.404
    12445.500      5767.000    7377.705     12445.500      5767.000    7785.169
    13227.906      5767.000    7408.408     13227.906      5767.000    7822.614
    14010.281      5767.000    7442.022     14010.281      5767.000    7864.073
    15420.406      5767.000    7520.835     15420.406      5767.000    7958.196
    17012.500      5767.000    7625.317     17012.500      5767.000    8078.073
    18923.000      5767.000    7685.814     18923.000      5767.000    8155.673
      454.875      6475.500    7683.776       454.875      6475.500    8133.697
     1378.281      6475.500    7646.991      1378.281      6475.500    8093.770
     2301.688      6475.500    7567.750      2301.688      6475.500    8010.294
     3225.094      6475.500    7464.074      3225.094      6475.500    7900.522
     4148.500      6475.500    7372.872      4148.500      6475.500    7803.820
     5071.906      6475.500    7297.847      5071.906      6475.500    7723.337
     5995.312      6475.500    7226.334      5995.312      6475.500    7644.305
     6918.719      6475.500    7163.414      6918.719      6475.500    7573.300
     7554.625      6475.500    7120.574      7554.625      6475.500    7524.680
     8190.562      6475.500    7088.006      8190.562      6475.500    7487.798
     8826.469      6475.500    7060.132      8826.469      6475.500    7456.502
     9462.406      6475.500    7039.362      9462.406      6475.500    7432.676
    10183.844      6475.500    7027.813     10183.844      6475.500    7661.335
    10880.719      6475.500    7277.440     10880.719      6475.500    7673.328
    11663.125      6475.500    7301.973     11663.125      6475.500    7702.369
    12445.500      6475.500    7331.830     12445.500      6475.500    7738.378
    13227.906      6475.500    7363.384     13227.906      6475.500    7777.065
    14010.281      6475.500    7402.693     14010.281      6475.500    7823.880
    15420.406      6475.500    7482.609     15420.406      6475.500    7918.642
    17012.500      6475.500    7596.139     17012.500      6475.500    8047.078
    18923.000      6475.500    7678.129     18923.000      6475.500    8145.596
      454.875      7184.500    7676.712       454.875      7184.500    8126.603
     1378.281      7184.500    7630.542      1378.281      7184.500    8077.811
     2301.688      7184.500    7543.001      2301.688      7184.500    7986.426
     3225.094      7184.500    7440.742      3225.094      7184.500    7878.547
     4148.500      7184.500    7352.172      4148.500      7184.500    7784.394
     5071.906      7184.500    7274.818      5071.906      7184.500    7700.907
     5995.312      7184.500    7208.769      5995.312      7184.500    7627.923
     6918.719      7184.500    7131.622      6918.719      7184.500    7542.683
     7554.625      7184.500    7088.785      7554.625      7184.500    7494.812
     8190.562      7184.500    7044.927      8190.562      7184.500    7446.498
     8826.469      7184.500    7007.507      8826.469      7184.500    7405.121
     9462.406      7184.500    6997.223      9462.406      7184.500    7391.473
    10183.844      7184.500    6991.650     10183.844      7184.500    7594.900
    10880.719      7184.500    7214.557     10880.719      7184.500    7607.856
    11663.125      7184.500    7251.255     11663.125      7184.500    7649.258
    12445.500      7184.500    7296.590     12445.500      7184.500    7701.089
    13227.906      7184.500    7331.327     13227.906      7184.500    7743.413
    14010.281      7184.500    7365.416     14010.281      7184.500    7785.336
    15420.406      7184.500    7449.586     15420.406      7184.500    7885.454
    17012.500      7184.500    7567.165     17012.500      7184.500    8015.733
    18923.000      7184.500    7668.862     18923.000      7184.500    8133.021
      454.875      7893.000    7671.590       454.875      7893.000    8121.240
     1378.281      7893.000    7619.317      1378.281      7893.000    8067.207
     2301.688      7893.000    7528.780      2301.688      7893.000    7973.844
     3225.094      7893.000    7430.222      3225.094      7893.000    7870.322
     4148.500      7893.000    7344.681      4148.500      7893.000    7779.262
     5071.906      7893.000    7267.224      5071.906      7893.000    7695.415
     5995.312      7893.000    7192.887      5995.312      7893.000    7614.418
     6918.719      7893.000    7118.330      6918.719      7893.000    7530.273
     7554.625      7893.000    7072.171      7554.625      7893.000    7478.748
     8190.562      7893.000    7015.624      8190.562      7893.000    7417.710
     8826.469      7893.000    6993.167      8826.469      7893.000    7390.858
     9462.406      7893.000    6986.209      9462.406      7893.000    7380.064
    10183.844      7893.000    6983.506     10183.844      7893.000    7552.924
    10880.719      7893.000    7177.124     10880.719      7893.000    7567.083
    11663.125      7893.000    7200.882     11663.125      7893.000    7595.696
    12445.500      7893.000    7257.591     12445.500      7893.000    7659.149
    13227.906      7893.000    7308.411     13227.906      7893.000    7717.870
    14010.281      7893.000    7342.262     14010.281      7893.000    7760.039
    15420.406      7893.000    7422.229     15420.406      7893.000    7855.188
    17012.500      7893.000    7539.414     17012.500      7893.000    7986.680
    18923.000      7893.000    7658.913     18923.000      7893.000    8120.784
      454.875      8702.500    7667.654       454.875      8702.500    8117.261
     1378.281      8702.500    7611.442      1378.281      8702.500    8060.027
     2301.688      8702.500    7520.424      2301.688      8702.500    7966.829
     3225.094      8702.500    7425.981      3225.094      8702.500    7868.208
     4148.500      8702.500    7334.878      4148.500      8702.500    7772.393
     5071.906      8702.500    7256.532      5071.906      8702.500    7687.260
     5995.312      8702.500    7194.637      5995.312      8702.500    7616.804
     6918.719      8702.500    7117.813      6918.719      8702.500    7530.931
     7554.625      8702.500    7074.237      7554.625      8702.500    7481.794
     8190.562      8702.500    7017.723      8190.562      8702.500    7420.406
     8826.469      8702.500    6996.602      8826.469      8702.500    7394.499
     9462.406      8702.500    6991.847      9462.406      8702.500    7385.481
    10183.844      8702.500    6989.743     10183.844      8702.500    7651.826
    10880.719      8702.500    7151.177     10880.719      8702.500    7662.561
    11663.125      8702.500    7183.498     11663.125      8702.500    7689.541
    12445.500      8702.500    7224.311     12445.500      8702.500    7732.676
    13227.906      8702.500    7287.564     13227.906      8702.500    7795.688
    14010.281      8702.500    7323.036     14010.281      8702.500    7840.932
    15420.406      8702.500    7402.568     15420.406      8702.500    7951.190
    17012.500      8702.500    7515.567     17012.500      8702.500    8077.318
    18923.000      8702.500    7648.403     18923.000      8702.500    8108.909
      454.875      9500.500    7664.717       454.875      9500.500    8114.663
     1378.281      9500.500    7606.633      1378.281      9500.500    8055.830
     2301.688      9500.500    7515.578      2301.688      9500.500    7962.782
     3225.094      9500.500    7421.344      3225.094      9500.500    7864.787
     4148.500      9500.500    7338.583      4148.500      9500.500    7777.741
     5071.906      9500.500    7263.140      5071.906      9500.500    7696.111
     5995.312      9500.500    7198.763      5995.312      9500.500    7623.454
     6918.719      9500.500    7133.539      6918.719      9500.500    7549.517
     7554.625      9500.500    7102.983      7554.625      9500.500    7512.938
     8190.562      9500.500    7074.927      8190.562      9500.500    7479.311
     8826.469      9500.500    7039.228      8826.469      9500.500    7438.612
     9462.406      9500.500    7017.960      9462.406      9500.500    7413.071
    10183.844      9500.500    7009.667     10183.844      9500.500    7678.391
    10880.719      9500.500    7293.944     10880.719      9500.500    7683.922
    11663.125      9500.500    7315.497     11663.125      9500.500    7705.930
    12445.500      9500.500    7357.449     12445.500      9500.500    7754.380
    13227.906      9500.500    7400.480     13227.906      9500.500    7805.043
    14010.281      9500.500    7435.557     14010.281      9500.500    7848.163
    15420.406      9500.500    7519.142     15420.406      9500.500    7949.476
    17012.500      9500.500    7634.070     17012.500      9500.500    8079.111
    18923.000      9500.500    7691.398     18923.000      9500.500    8151.754
      454.875     10399.500    7665.561       454.875     10399.500    8115.889
     1378.281     10399.500    7608.465      1378.281     10399.500    8057.791
     2301.688     10399.500    7519.512      2301.688     10399.500    7967.362
     3225.094     10399.500    7432.759      3225.094     10399.500    7877.587
     4148.500     10399.500    7350.619      4148.500     10399.500    7791.795
     5071.906     10399.500    7278.521      5071.906     10399.500    7715.705
     5995.312     10399.500    7220.579      5995.312     10399.500    7648.063
     6918.719     10399.500    7168.155      6918.719     10399.500    7587.219
     7554.625     10399.500    7138.575      7554.625     10399.500    7551.459
     8190.562     10399.500    7116.641      8190.562     10399.500    7523.944
     8826.469     10399.500    7106.289      8826.469     10399.500    7508.667
     9462.406     10399.500    7095.573      9462.406     10399.500    7494.113
    10183.844     10399.500    7100.308     10183.844     10399.500    7731.317
    10880.719     10399.500    7348.665     10880.719     10399.500    7742.432
    11663.125     10399.500    7371.001     11663.125     10399.500    7764.908
    12445.500     10399.500    7398.020     12445.500     10399.500    7794.282
    13227.906     10399.500    7427.203     13227.906     10399.500    7830.708
    14010.281     10399.500    7455.546     14010.281     10399.500    7867.543
    15420.406     10399.500    7531.462     15420.406     10399.500    7958.395
    17012.500     10399.500    7644.596     17012.500     10399.500    8086.596
    18923.000     10399.500    7693.328     18923.000     10399.500    8152.250
      454.875     11298.500    7670.637       454.875     11298.500    8120.990
     1378.281     11298.500    7618.443      1378.281     11298.500    8067.459
     2301.688     11298.500    7529.144      2301.688     11298.500    7976.403
     3225.094     11298.500    7433.152      3225.094     11298.500    7877.716
     4148.500     11298.500    7364.160      4148.500     11298.500    7804.846
     5071.906     11298.500    7307.941      5071.906     11298.500    7743.890
     5995.312     11298.500    7253.983      5995.312     11298.500    7683.648
     6918.719     11298.500    7216.526      6918.719     11298.500    7639.018
     7554.656     11298.500    7205.317      7554.656     11298.500    7622.195
     8190.562     11298.500    7178.813      8190.562     11298.500    7590.216
     8826.469     11298.500    7163.095      8826.469     11298.500    7569.826
     9462.406     11298.500    7156.527      9462.406     11298.500    7559.177
    10183.844     11298.500    7156.382     10183.844     11298.500    7805.748
    10880.719     11298.500    7414.377     10880.719     11298.500    7811.625
    11663.125     11298.500    7427.811     11663.125     11298.500    7824.847
    12445.500     11298.500    7445.369     12445.500     11298.500    7844.934
    13227.906     11298.500    7467.417     13227.906     11298.500    7869.828
    14010.281     11298.500    7494.099     14010.281     11298.500    7904.212
    15420.406     11298.500    7577.857     15420.406     11298.500    8001.920
    17012.500     11298.500    7662.569     17012.500     11298.500    8100.266
    18923.000     11298.500    7695.721     18923.000     11298.500    8149.999
      454.875     12197.000    7678.258       454.875     12197.000    8128.057
     1378.281     12197.000    7636.883      1378.281     12197.000    8085.265
     2301.688     12197.000    7558.860      2301.688     12197.000    8004.921
     3225.094     12197.000    7468.103      3225.094     12197.000    7909.933
     4148.500     12197.000    7392.029      4148.500     12197.000    7830.229
     5071.906     12197.000    7345.902      5071.906     12197.000    7780.538
     5995.312     12197.000    7302.711      5995.312     12197.000    7731.991
     6918.719     12197.000    7264.000      6918.719     12197.000    7686.106
     7554.625     12197.000    7246.598      7554.625     12197.000    7664.928
     8190.562     12197.000    7233.094      8190.562     12197.000    7647.311
     8826.469     12197.000    7226.723      8826.469     12197.000    7636.281
     9462.406     12197.000    7222.471      9462.406     12197.000    7627.355
    10183.844     12197.000    7222.282     10183.844     12197.000    7873.440
    10880.719     12197.000    7480.295     10880.719     12197.000    7879.027
    11663.125     12197.000    7489.495     11663.125     12197.000    7888.168
    12445.500     12197.000    7508.422     12445.500     12197.000    7909.854
    13227.906     12197.000    7532.377     13227.906     12197.000    7937.751
    14010.281     12197.000    7563.270     14010.281     12197.000    7973.539
    15420.406     12197.000    7628.676     15420.406     12197.000    8050.854
    17012.500     12197.000    7679.982     17012.500     12197.000    8115.298
    18923.000     12197.000    7697.739     18923.000     12197.000    8146.833
      454.875     13926.500    7692.785       454.875     13926.500    8140.048
     1378.281     13926.500    7678.197      1378.281     13926.500    8123.140
     2301.688     13926.500    7644.615      2301.688     13926.500    8087.754
     3225.094     13926.500    7588.046      3225.094     13926.500    8028.858
     4148.500     13926.500    7526.130      4148.500     13926.500    7964.163
     5071.906     13926.500    7467.427      5071.906     13926.500    7901.946
     5995.312     13926.500    7429.903      5995.312     13926.500    7860.667
     6918.719     13926.500    7405.104      6918.719     13926.500    7832.579
     7554.625     13926.500    7385.427      7554.625     13926.500    7808.666
     8190.562     13926.500    7374.488      8190.562     13926.500    7791.994
     8826.469     13926.500    7366.165      8826.469     13926.500    7777.328
     9462.406     13926.500    7359.723      9462.406     13926.500    7764.654
    10183.844     13926.500    7359.571     10183.844     13926.500    8027.888
    10880.719     13926.500    7632.308     10880.719     13926.500    8027.171
    11663.125     13926.500    7638.918     11663.125     13926.500    8033.385
    12445.500     13926.500    7648.245     12445.500     13926.500    8046.034
    13227.906     13926.500    7659.251     13227.906     13926.500    8062.346
    14010.281     13926.500    7670.554     14010.281     13926.500    8078.596
    15420.406     13926.500    7687.232     15420.406     13926.500    8103.320
    17012.500     13926.500    7696.715     17012.500     13926.500    8125.282
    18923.000     13926.500    7699.627     18923.000     13926.500    8146.357
      454.875     15883.500    7699.200       454.875     15883.500    8145.655
     1378.281     15883.500    7697.640      1378.281     15883.500    8140.358
     2301.688     15883.500    7693.903      2301.688     15883.500    8133.904
     3225.094     15883.500    7686.314      3225.094     15883.500    8124.313
     4148.500     15883.500    7675.825      4148.500     15883.500    8112.146
     5071.906     15883.500    7660.414      5071.906     15883.500    8094.538
     5995.312     15883.500    7642.160      5995.312     15883.500    8072.732
     6918.719     15883.500    7623.960      6918.719     15883.500    8049.792
     7554.625     15883.500    7612.753      7554.625     15883.500    8034.500
     8190.562     15883.500    7604.388      8190.562     15883.500    8021.300
     8826.469     15883.500    7597.668      8826.469     15883.500    8009.147
     9462.406     15883.500    7594.738      9462.406     15883.500    8000.652
    10183.844     15883.500    7630.062     10183.844     15883.500    8030.520
    10880.719     15883.500    7695.121     10880.719     15883.500    8091.976
    11663.125     15883.500    7695.728     11663.125     15883.500    8091.518
    12445.500     15883.500    7696.519     12445.500     15883.500    8094.213
    13227.906     15883.500    7697.396     13227.906     15883.500    8098.872
    14010.281     15883.500    7698.220     14010.281     15883.500    8104.104
    15420.406     15883.500    7699.269     15420.406     15883.500    8113.387
    17012.500     15883.500    7699.813     17012.500     15883.500    8123.167
    18923.000     15883.500    7699.979     18923.000     15883.500    8136.908
  /

ZCORN
   7699.979    7699.920    7699.920    7699.735    7699.735    7699.223 
   7699.223    7698.072    7698.072    7695.658    7695.658    7691.388 
   7691.388    7684.869    7684.869    7678.914    7678.914    7672.234 
   7672.234    7665.669    7665.669    7660.328    7660.328    7661.166 
   7646.946    7695.763    7695.763    7696.506    7696.506    7697.266 
   7697.266    7697.995    7697.995    7698.631    7698.631    7699.415 
   7699.415    7699.829    7699.829    7699.972 
   7699.697    7698.844    7698.844    7696.122    7696.122    7688.775 
   7688.775    7672.649    7672.649    7643.593    7643.593    7602.703 
   7602.703    7555.167    7555.167    7522.612    7522.612    7493.249 
   7493.249    7468.143    7468.143    7448.854    7448.854    7433.136 
   7645.739    7650.554    7650.554    7657.780    7657.780    7665.964 
   7665.964    7674.298    7674.298    7681.972    7681.972    7692.101 
   7692.101    7697.670    7697.670    7699.630 
   7699.697    7698.844    7698.844    7696.122    7696.122    7688.775 
   7688.775    7672.649    7672.649    7643.593    7643.593    7602.703 
   7602.703    7555.167    7555.167    7522.612    7522.612    7493.249 
   7493.249    7468.143    7468.143    7448.854    7448.854    7433.136 
   7645.739    7650.554    7650.554    7657.780    7657.780    7665.964 
   7665.964    7674.298    7674.298    7681.972    7681.972    7692.101 
   7692.101    7697.670    7697.670    7699.630 
   7698.134    7692.787    7692.787    7676.099    7676.099    7635.392 
   7635.392    7567.396    7567.396    7487.915    7487.915    7423.913 
   7423.913    7380.215    7380.215    7352.973    7352.973    7330.895 
   7330.895    7318.934    7318.934    7308.133    7308.133    7315.271 
   7504.915    7512.453    7512.453    7529.913    7529.913    7551.230 
   7551.230    7576.640    7576.640    7606.153    7606.153    7653.892 
   7653.892    7685.698    7685.698    7697.702 
   7698.134    7692.787    7692.787    7676.099    7676.099    7635.392 
   7635.392    7567.396    7567.396    7487.915    7487.915    7423.913 
   7423.913    7380.215    7380.215    7352.973    7352.973    7330.895 
   7330.895    7318.934    7318.934    7308.133    7308.133    7315.271 
   7504.915    7512.453    7512.453    7529.913    7529.913    7551.230 
   7551.230    7576.640    7576.640    7606.153    7606.153    7653.892 
   7653.892    7685.698    7685.698    7697.702 
   7696.494    7686.380    7686.380    7655.646    7655.646    7587.687 
   7587.687    7496.590    7496.590    7421.158    7421.158    7359.410 
   7359.410    7316.107    7316.107    7290.706    7290.706    7267.266 
   7267.266    7244.744    7244.744    7233.266    7233.266    7230.758 
   7439.633    7447.767    7447.767    7463.194    7463.194    7483.178 
   7483.178    7509.848    7509.848    7546.386    7546.386    7615.521 
   7615.521    7672.118    7672.118    7695.379 
   7696.494    7686.380    7686.380    7655.646    7655.646    7587.687 