SPECGRID
  4  4  3   1  F  /

COORD
   462919.514   5929691.263    1762.321    462919.514   5929691.263    1895.872
   463842.056   5930205.979    1732.952    463867.617   5930220.240    1871.156
   464764.598   5930720.695    1734.034    464815.721   5930749.219    1875.720
   465687.139   5931235.412    1708.893    465953.616   5931384.088    2239.968
   467252.678   5932108.877    2124.306    467252.678   5932108.877    2283.871
   462158.116   5931055.940    1710.962    462158.116   5931055.940    1836.949
   463113.791   5931594.020    1675.398    463136.935   5931606.448    1798.766
   464074.266   5932136.653    1649.809    464123.099   5932162.634    1790.625
   465076.447   5932706.553    1671.882    465393.648   5932871.869    2282.924
   466491.279   5933473.554    2124.610    466491.279   5933473.554    2280.966
   461396.717   5932420.617    1683.186    461396.717   5932420.617    1803.398
   462370.605   5932970.210    1649.856    462393.459   5932982.588    1774.087
   463348.974   5933524.557    1612.798    463397.297   5933550.659    1749.562
   464419.372   5934134.464    1724.458    464707.568   5934289.208    2249.465
   465729.881   5934838.231    2109.536    465729.881   5934838.231    2260.904
   460635.319   5933785.294    1695.101    460635.319   5933785.294    1766.941
   461609.524   5934332.268    1664.081    461627.985   5934342.627    1757.744
   462599.557   5934888.362    1635.122    462644.860   5934914.098    1772.724
   463694.912   5935503.882    1693.258    463963.851   5935661.729    2251.457
   464968.482   5936202.908    2111.351    464968.482   5936202.908    2260.946
   459873.921   5935149.971    1613.005    459873.921   5935149.971    1733.049
   460808.156   5935671.212    1698.472    460832.961   5935685.052    1830.599
   461742.392   5936192.453    1714.142    461792.003   5936220.132    1850.621
   462676.628   5936713.693    1825.398    462894.569   5936835.290    2251.282
   464207.084   5937567.585    2113.548    464207.084   5937567.585    2261.072
  /

ZCORN
   1762.321    1732.952    1732.952    1734.034    1734.034    1708.893 
   2070.145    2124.306 
   1710.962    1675.398    1675.398    1649.809    1649.809    1671.882 
   2131.505    2124.610 
   1710.962    1675.398    1675.398    1649.809    1649.809    1671.882 
   2131.505    2124.610 
   1683.186    1649.856    1649.856    1612.798    1612.798    1724.458 
   2099.214    2109.536 
   1683.186    1649.856    1649.856    1612.798    1612.798    1724.458 
   2099.214    2109.536 
   1695.101    1664.081    1664.081    1635.122    1635.122    1693.258 
   2108.510    2111.351 
   1695.101    1664.081    1664.081    1635.122    1635.122    1693.258 
   2108.510    2111.351 
   1613.005    1698.472    1698.472    1714.142    1714.142    1825.397 
   2099.137    2113.548 
   1806.838    1779.020    1779.020    1781.262    1781.262    1759.835 
   2126.752    2177.494 
   1752.958    1716.521    1716.521    1696.748    1696.748    1723.195 
   2181.978    2176.729    1752.958    1716.521    1716.521    1696.748 
   1696.748    1723.195    2181.978    2176.729 
   1723.257    1691.267    1691.267    1658.385    1658.385    1773.501 
   2149.298    2159.992    1723.257    1691.267    1691.267    1658.385 
   1658.385    1773.501    2149.298    2159.992 
   1719.048    1695.302    1695.302    1680.989    1680.989    1744.171 
   2156.159    2161.216    1719.048    1695.302    1695.302    1680.989 
   1680.989    1744.171    2156.159    2161.216 
   1653.020    1742.514    1742.514    1759.635    1759.635    1873.871 
   2149.852    2162.723    1806.838    1779.020    1779.020    1781.262 
   1781.262    1759.835    2126.752    2177.494 
   1752.958    1716.521    1716.521    1696.748    1696.748    1723.195 
   2181.978    2176.729 
   1752.958    1716.521    1716.521    1696.748    1696.748    1723.195 
   2181.978    2176.729 
   1723.257    1691.267    1691.267    1658.385    1658.385    1773.501 
   2149.298    2159.992 
   1723.257    1691.267    1691.267    1658.385    1658.385    1773.501 
   2149.298    2159.992 
   1719.048    1695.302    1695.302    1680.989    1680.989    1744.171 
   2156.159    2161.216 
   1719.048    1695.302    1695.302    1680.989    1680.989    1744.171 
   2156.159    2161.216 
   1653.020    1742.514    1742.514    1759.635    1759.635    1873.871 
   2149.852    2162.723 
   1851.355    1825.088    1825.088    1828.491    1828.491    1810.778 
   2183.360    2230.683 
   1794.954    1757.643    1757.643    1743.687    1743.687    1774.507 
   2232.451    2228.848    1794.954    1757.643    1757.643    1743.687 
   1743.687    1774.507    2232.451    2228.848 
   1763.327    1732.677    1732.677    1703.974    1703.974    1822.543 
   2199.381    2210.448    1763.327    1732.677    1732.677    1703.974 
   1703.974    1822.543    2199.381    2210.448 
   1742.994    1726.523    1726.523    1726.857    1726.857    1795.084 
   2203.808    2211.081    1742.994    1726.523    1726.523    1726.857 
   1726.857    1795.084    2203.808    2211.081 
   1693.034    1786.556    1786.556    1805.128    1805.128    1922.345 
   2200.567    2211.898    1851.355    1825.088    1825.088    1828.491 
   1828.491    1810.778    2183.360    2230.683 
   1794.954    1757.643    1757.643    1743.687    1743.687    1774.507 
   2232.451    2228.848 
   1794.954    1757.643    1757.643    1743.687    1743.687    1774.507 
   2232.451    2228.848 
   1763.327    1732.677    1732.677    1703.974    1703.974    1822.543 
   2199.381    2210.448 
   1763.327    1732.677    1732.677    1703.974    1703.974    1822.543 
   2199.381    2210.448 
   1742.994    1726.523    1726.523    1726.857    1726.857    1795.084 
   2203.808    2211.081 
   1742.994    1726.523    1726.523    1726.857    1726.857    1795.084 
   2203.808    2211.081 
   1693.034    1786.556    1786.556    1805.128    1805.128    1922.345 
   2200.567    2211.898 
   1895.872    1871.156    1871.156    1875.719    1875.719    1861.720 
   2239.968    2283.871 
   1836.949    1798.766    1798.766    1790.625    1790.625    1825.819 
   2282.924    2280.967    1836.949    1798.766    1798.766    1790.625 
   1790.625    1825.819    2282.924    2280.967 
   1803.398    1774.087    1774.087    1749.562    1749.562    1871.586 
   2249.465    2260.905    1803.398    1774.087    1774.087    1749.562 
   1749.562    1871.586    2249.465    2260.905 
   1766.941    1757.744    1757.744    1772.724    1772.724    1845.997 
   2251.458    2260.946    1766.941    1757.744    1757.744    1772.724 
   1772.724    1845.997    2251.458    2260.946 
   1733.049    1830.599    1830.599    1850.621    1850.621    1970.818 
   2251.282    2261.073 
  /

ACTNUM
1 1 1 1 
1 1 1 1 
1 1 1 1 
1 1 1 1 
1 1 1 1 
1 1 1 1 
1 1 1 1 
1 1 1 1 
1 1 1 1 
1 1 1 1 
1 1 1 1 
1 1 1 1 
  /

