MAPUNITS
'METRES  ' /

MAPAXES
460090.936 5936451.383
460090.936 5931903.401
463948.429 5931903.401 /

GRIDUNIT
'METRES  ' '        ' /

SPECGRID
  21  41  18   1  F  /

GDORIENT
INC INC INC DOWN LEFT /

COORD
     2106.213         1.134    1666.995      2077.863         0.000    1713.015
     2174.563        31.269    1662.699      2150.504        29.308    1708.200
     2271.841        80.635    1661.090      2249.047        76.601    1706.656
     2365.898       130.522    1665.233      2344.795       124.302    1709.850
     2461.246       181.988    1667.712      2441.487       173.218    1713.560
     2559.224       235.926    1663.845      2541.339       224.509    1710.012
     2657.479       290.877    1664.966      2642.001       276.888    1710.039
     2756.695       345.925    1666.048      2743.579       329.029    1711.811
     2856.116       397.922    1664.597      2845.496       378.136    1710.517
     2958.107       453.452    1653.240      2948.072       425.209    1711.825
     3030.941       440.547    1654.277      3023.630       418.635    1701.761
     3119.745       504.031    1646.365      3113.214       482.679    1693.165
     3205.274       563.658    1635.638      3199.191       541.426    1682.506
     3287.267       617.139    1623.178      3281.624       594.084    1669.430
     3371.507       688.548    1563.224      3360.372       638.485    1658.329
     3444.423       718.794    1567.270      3441.017       696.163    1615.014
     3515.858       766.011    1574.087      3514.989       747.079    1622.140
     3585.167       822.850    1578.148      3586.859       808.288    1625.855
     3652.199       883.407    1579.065      3656.347       873.084    1626.829
     3718.001       944.205    1590.312      3724.533       937.991    1638.612
     3782.958      1006.137    1604.293      3791.795      1004.033    1653.078
     3846.372      1069.499    1613.225      3857.494      1071.563    1662.885
     2055.684        84.426    1670.264      2034.804        80.176    1715.279
     2141.423       126.427    1661.490      2120.183       121.112    1707.721
     2231.910       173.056    1660.391      2211.911       166.290    1705.389
     2323.992       221.811    1665.977      2305.243       213.178    1710.011
     2419.068       273.007    1666.914      2401.336       261.979    1712.581
     2516.897       327.088    1662.710      2500.684       313.472    1709.166
     2615.643       382.958    1662.629      2601.607       366.768    1708.384
     2715.478       439.875    1664.475      2704.071       420.996    1709.865
     2816.401       494.506    1647.562      2803.869       463.625    1709.989
     2886.595       471.194    1650.974      2875.350       441.543    1711.069
     2976.994       530.246    1647.617      2968.990       507.895    1695.068
     3065.094       588.925    1639.510      3057.711       566.695    1687.150
     3149.865       644.344    1627.846      3143.014       621.763    1674.993
     3229.404       689.049    1617.038      3223.218       666.569    1662.077
     3307.245       731.400    1561.239      3294.976       682.258    1655.979
     3383.297       791.996    1568.406      3380.013       771.542    1615.943
     3455.701       850.612    1575.273      3455.090       834.226    1622.873
     3525.552       910.389    1578.786      3527.490       898.068    1626.621
     3593.340       971.237    1581.388      3597.735       963.032    1629.294
     3660.117      1032.413    1593.463      3666.939      1028.296    1642.094
     3726.069      1095.124    1606.564      3735.273      1095.190    1655.539
     3790.523      1159.313    1614.520      3802.068      1163.724    1663.911
     2010.276       170.227    1667.170      1993.355       163.815    1712.602
     2098.567       215.638    1661.780      2080.971       208.192    1707.311
     2188.964       262.768    1660.317      2171.699       253.963    1704.791
     2280.608       311.221    1665.570      2263.929       300.635    1709.554
     2375.320       362.157    1666.370      2359.283       349.269    1712.058
     2473.075       416.349    1662.111      2458.247       400.964    1708.584
     2572.721       474.024    1660.158      2559.747       455.953    1706.704
     2681.982       555.453    1638.636      2667.422       524.192    1706.223
     2748.411       522.907    1643.231      2734.757       491.547    1708.287
     2836.994       569.475    1644.518      2827.620       546.672    1692.539
     2926.106       622.534    1640.623      2917.394       600.020    1689.106
     3014.108       678.307    1631.138      3006.011       655.863    1679.765
     3100.457       737.598    1618.223      3092.969       715.118    1665.607
     3193.498       835.977    1554.662      3179.282       789.362    1648.991
     3247.584       780.445    1558.224      3234.271       732.442    1652.790
     3326.664       869.594    1566.452      3323.453       851.319    1613.501
     3399.001       935.265    1574.021      3398.514       921.094    1621.268
     3468.742       996.975    1579.261      3470.807       986.766    1626.834
     3536.829      1058.255    1583.821      3541.369      1052.042    1631.632
     3604.142      1119.901    1594.671      3611.151      1117.722    1643.297
     3671.145      1183.296    1608.523      3680.643      1185.291    1657.816
     3737.298      1249.471    1617.209      3749.189      1255.797    1666.211
     1962.957       255.605    1669.738      1949.080       247.714    1714.496
     2052.477       302.470    1664.496      2037.631       293.424    1709.856
     2143.353       350.204    1661.912      2128.371       339.846    1706.258
     2234.956       398.459    1666.936      2220.061       386.359    1710.903
     2329.454       448.957    1667.743      2314.809       434.628    1713.367
     2427.215       502.503    1662.919      2413.438       485.854    1709.167
     2525.629       555.188    1659.330      2513.348       536.194    1706.295
     2618.082       592.171    1634.426      2602.518       560.896    1704.671
     2700.830       619.976    1637.946      2690.729       598.502    1684.836
     2788.681       664.689    1634.645      2778.916       642.698    1682.459
     2877.162       714.093    1630.195      2867.881       691.877    1678.990
     2965.076       765.399    1621.803      2956.405       743.206    1670.599
     3051.529       817.609    1610.983      3043.539       795.600    1658.099
     3143.985       895.269    1550.904      3128.781       849.932    1645.430
     3208.171       919.645    1557.138      3202.559       899.260    1603.809
     3276.708       968.819    1563.794      3273.652       952.304    1610.587
     3345.660      1025.293    1572.520      3345.221      1012.877    1619.519
     3414.241      1084.476    1580.450      3416.354      1076.080    1627.733
     3482.165      1144.918    1587.154      3486.786      1140.489    1634.897
     3549.726      1206.234    1597.193      3556.858      1205.831    1645.746
     3617.228      1268.985    1609.143      3626.912      1272.776    1658.415
     3684.386      1333.312    1617.050      3696.544      1341.500    1666.059
     1915.083       340.667    1671.138      1903.591       331.690    1715.384
     2004.930       388.085    1666.826      1992.303       377.858    1712.052
     2096.112       436.207    1662.557      2082.944       424.631    1707.168
     2187.696       484.228    1666.569      2174.276       470.993    1710.506
     2281.663       533.956    1669.225      2268.066       518.509    1714.539
     2380.457       589.042    1664.769      2367.191       571.146    1710.681
     2497.166       676.764    1629.442      2477.593       642.635    1705.067
     2556.269       632.289    1631.345      2539.292       600.395    1704.141
     2649.607       701.760    1630.348      2638.939       680.672    1677.134
     2739.940       755.165    1624.240      2729.595       733.515    1672.059
     2829.450       805.062    1617.594      2819.609       783.174    1666.445
     2917.800       852.437    1611.458      2908.626       830.675    1659.665
     3004.184       895.866    1604.360      2995.832       874.664    1650.444
     3096.273       956.041    1547.172      3080.003       911.846    1641.802
     3159.754      1001.867    1556.966      3154.178       983.528    1603.099
     3226.053      1055.403    1564.098      3223.050      1040.895    1610.161
     3293.317      1112.193    1573.830      3292.899      1101.579    1620.565
     3361.008      1171.004    1583.160      3363.154      1164.293    1630.446
     3428.697      1231.012    1591.225      3433.375      1228.219    1638.977
     3496.332      1291.833    1600.600      3503.557      1293.025    1649.001
     3563.777      1353.485    1608.873      3573.548      1358.803    1657.531
     3630.867      1415.719    1615.458      3643.277      1425.414    1664.300
     1866.575       425.442    1671.927      1857.050       415.651    1716.077
     1956.408       473.023    1668.361      1945.635       461.958    1713.344
     2047.347       521.062    1663.855      2035.696       508.608    1708.579
     2138.591       568.545    1665.823      2126.349       554.507    1709.850
     2231.206       615.993    1668.908      2218.389       599.858    1713.712
     2327.458       664.163    1666.257      2314.440       645.808    1711.212
     2441.288       724.794    1628.437      2418.794       688.363    1706.192
     2515.954       752.229    1629.288      2503.546       730.882    1675.990
     2602.258       799.358    1621.983      2590.618       778.036    1669.367
     2691.841       848.642    1616.346      2680.850       827.205    1664.182
     2782.533       897.583    1608.740      2772.196       876.124    1657.044
     2872.583       943.497    1602.312      2862.901       922.103    1650.153
     2959.658       980.532    1598.372      2951.190       960.593    1642.304
     3047.193      1015.710    1545.533      3030.108       972.825    1639.115
     3109.189      1076.906    1558.304      3103.531      1060.257    1604.042
     3174.559      1137.836    1565.556      3171.567      1125.121    1611.607
     3241.044      1197.386    1575.403      3240.661      1188.479    1622.047
     3308.296      1256.864    1586.601      3310.483      1251.746    1633.789
     3375.950      1316.823    1596.209      3380.687      1315.527    1643.890
     3443.644      1377.222    1603.987      3450.952      1379.831    1652.303
     3511.229      1437.952    1610.960      3521.122      1444.595    1659.438
     3578.263      1498.637    1615.557      3590.778      1509.472    1663.870
     1817.526       510.081    1671.917      1809.722       499.706    1716.131
     1907.190       557.689    1668.951      1898.014       546.068    1713.677
     1997.492       605.356    1665.869      1987.180       592.379    1710.294
     2087.704       652.067    1668.018      2076.386       637.489    1712.132
     2178.369       698.242    1668.645      2166.061       681.701    1713.433
     2269.034       742.823    1666.986      2255.982       724.352    1711.318
     2369.094       799.891    1628.831      2343.911       762.502    1708.009
     2458.977       844.229    1626.804      2445.675       822.919    1673.596
     2550.424       893.238    1616.750      2538.046       871.977    1664.505
     2642.755       942.838    1608.733      2631.148       921.555    1656.819
     2736.046       992.750    1600.958      2725.195       971.565    1648.859
     2830.291      1043.599    1595.422      2820.199      1022.662    1642.115
     2938.483      1125.742    1546.100      2920.236      1085.583    1634.711
     2994.370      1072.054    1545.672      2976.691      1030.656    1636.822
     3056.751      1155.316    1562.035      3051.075      1140.165    1607.784
     3122.093      1221.882    1569.954      3119.179      1210.738    1616.156
     3188.472      1283.148    1580.122      3188.178      1275.790    1626.336
     3255.752      1343.047    1591.714      3258.017      1339.361    1638.777
     3323.641      1402.917    1602.062      3328.465      1402.964    1649.819
     3391.557      1462.860    1607.819      3398.936      1466.722    1655.905
     3459.271      1522.663    1611.809      3469.244      1530.446    1660.035
     3526.727      1582.302    1615.849      3539.258      1594.051    1663.592
     1768.128       594.844    1670.094      1761.919       584.118    1714.207
     1857.527       642.353    1668.806      1849.787       630.421    1713.266
     1947.244       689.761    1667.379      1938.099       676.488    1711.815
     2036.567       736.158    1670.081      2026.101       721.365    1714.259
     2125.542       781.970    1670.506      2113.771       765.446    1715.049
     2212.838       826.353    1668.079      2199.828       808.064    1712.523
     2306.598       883.243    1630.260      2281.147       847.362    1709.556
     2401.661       933.547    1627.275      2388.026       912.822    1673.751
     2496.714       985.106    1614.997      2483.831       964.100    1662.813
     2592.244      1035.987    1603.857      2580.202      1015.031    1651.504
     2688.089      1085.968    1595.422      2676.854      1065.177    1642.308
     2782.923      1132.087    1592.172      2773.038      1112.688    1635.228
     2880.085      1176.297    1546.493      2861.223      1137.037    1632.891
     2940.344      1205.158    1556.558      2932.532      1187.033    1601.758
     3003.582      1255.623    1569.589      2998.302      1241.625    1614.922
     3068.691      1312.229    1581.344      3066.017      1302.332    1626.782
     3135.474      1370.913    1592.104      3135.348      1364.803    1638.255
     3203.249      1430.231    1600.127      3205.650      1427.797    1647.124
     3271.436      1489.636    1605.352      3276.358      1490.890    1652.837
     3339.609      1548.808    1608.207      3347.070      1553.798    1656.063
     3407.666      1607.662    1610.671      3417.691      1616.454    1658.664
     3475.761      1666.400    1614.537      3488.296      1678.976    1662.000
     1718.411       679.769    1666.885      1713.726       668.891    1710.796
     1807.722       727.327    1666.638      1801.318       715.264    1711.087
     1897.239       774.875    1665.814      1889.207       761.537    1710.316
     1986.344       821.580    1668.940      1976.752       806.845    1713.198
     2075.172       868.170    1669.847      2064.008       851.871    1714.477
     2162.879       914.741    1667.794      2150.203       896.894    1712.279
     2257.074       974.860    1633.559      2232.804       941.572    1709.856
     2345.863      1024.416    1630.900      2332.110      1004.329    1676.829
     2441.474      1076.334    1617.874      2428.294      1055.743    1665.141
     2540.294      1128.294    1604.017      2527.878      1107.617    1650.949
     2639.898      1180.817    1594.745      2628.191      1160.115    1640.663
     2754.517      1266.708    1548.093      2733.741      1227.767    1632.537
     2818.726      1223.256    1546.992      2799.147      1184.565    1631.735
     2881.244      1286.354    1564.062      2873.784      1270.301    1608.701
     2947.081      1344.302    1575.692      2942.233      1332.086    1620.490
     3013.907      1401.299    1589.692      3011.552      1392.767    1635.471
     3081.902      1459.401    1599.670      3082.028      1454.525    1646.190
     3150.502      1518.144    1604.367      3153.103      1516.901    1651.384
     3219.234      1576.828    1606.757      3224.314      1579.218    1654.211
     3287.998      1635.263    1609.743      3295.573      1641.314    1657.418
     3356.495      1693.199    1610.624      3366.568      1702.925    1658.251
     3425.114      1750.954    1613.578      3437.715      1764.381    1661.374
     1668.272       764.458    1665.369      1665.079       753.578    1709.119
     1757.639       812.256    1665.018      1752.545       800.240    1709.418
     1847.262       860.301    1663.187      1840.341       847.087    1707.624
     1936.626       907.559    1666.508      1927.935       893.042    1710.776
     2026.511       955.265    1667.356      2016.036       939.276    1712.206
     2117.528      1004.369    1666.090      2105.341       986.988    1710.524
     2218.287      1071.591    1637.731      2195.656      1041.054    1708.610
     2284.633      1116.885    1636.738      2270.807      1097.412    1681.786
     2382.420      1167.125    1623.511      2369.065      1147.044    1669.459
     2486.310      1218.248    1608.346      2473.476      1197.670    1654.371
     2586.107      1261.605    1597.479      2574.385      1241.694    1640.963
     2688.674      1307.063    1549.847      2666.585      1267.572    1634.633
     2754.478      1334.434    1560.019      2745.181      1316.326    1604.101
     2822.182      1382.398    1566.712      2815.353      1367.948    1610.887
     2890.216      1435.821    1577.229      2885.822      1425.019    1622.252
     2958.800      1491.396    1589.233      2956.811      1484.158    1635.539
     3028.038      1548.673    1594.912      3028.468      1545.020    1641.796
     3097.489      1606.425    1599.747      3100.338      1606.347    1646.945
     3167.091      1664.352    1606.135      3172.385      1667.862    1653.872
     3236.671      1722.242    1611.310      3244.405      1729.344    1658.775
     3305.538      1779.241    1610.488      3315.713      1789.923    1657.879
     3374.638      1836.114    1614.349      3387.391      1850.497    1662.604
     1617.866       849.002    1664.487      1616.167       838.235    1708.242
     1707.282       897.003    1664.314      1703.496       885.168    1708.708
     1796.950       945.551    1661.452      1791.131       932.586    1705.985
     1886.582       993.593    1662.874      1878.782       979.376    1707.445
     1977.202      1041.751    1662.803      1967.418      1026.067    1708.134
     2071.546      1088.848    1663.334      2059.982      1071.838    1707.758
     2192.653      1140.700    1640.315      2171.094      1111.979    1707.571
     2167.713      1210.349    1642.371      2147.147      1183.294    1706.666
     2317.292      1257.716    1629.205      2303.635      1238.002    1674.357
     2435.566      1314.976    1612.158      2422.483      1294.640    1656.889
     2552.015      1379.729    1556.180      2526.998      1338.421    1643.996
     2621.193      1344.667    1552.411      2597.714      1304.406    1638.185
     2692.117      1412.660    1562.511      2683.149      1396.354    1606.953
     2762.985      1469.866    1568.684      2756.609      1457.097    1613.391
     2833.291      1525.014    1578.907      2829.350      1515.734    1624.107
     2903.720      1580.878    1586.630      2902.119      1575.001    1632.978
     2974.197      1637.657    1588.275      2974.945      1635.253    1634.988
     3044.619      1694.660    1594.692      3047.731      1695.745    1641.956
     3115.214      1752.146    1604.209      3120.728      1756.767    1651.929
     3185.409      1809.478    1608.240      3193.304      1817.617    1655.410
     3254.548      1865.587    1606.283      3264.821      1877.219    1653.362
     3323.960      1921.665    1612.815      3336.870      1937.052    1661.290
     1567.280       933.616    1661.967      1567.105       923.044    1705.857
     1656.781       981.720    1662.751      1654.316       970.164    1707.204
     1746.405      1030.897    1658.279      1741.682      1018.276    1703.112
     1835.693      1079.925    1657.829      1828.778      1066.214    1702.489
     1924.261      1129.088    1658.223      1915.117      1114.095    1703.377
     2010.321      1177.850    1659.537      1999.085      1161.762    1703.927
     2087.279      1225.309    1661.647      2074.138      1208.178    1705.506
     2145.982      1280.765    1642.856      2125.968      1254.891    1705.755
     2272.360      1345.560    1630.771      2258.412      1325.982    1675.785
     2412.002      1445.796    1565.815      2384.120      1403.250    1657.272
     2482.267      1412.970    1560.684      2455.598      1370.583    1651.048
     2557.510      1454.753    1563.163      2546.587      1436.366    1608.280
     2631.622      1506.304    1567.598      2623.323      1491.572    1612.768
     2704.675      1559.919    1573.034      2698.838      1548.673    1618.329
     2776.958      1614.266    1581.326      2773.458      1606.391    1626.862
     2848.973      1669.658    1589.057      2847.749      1665.111    1635.356
     2920.779      1726.076    1589.496      2921.835      1724.903    1636.124
     2992.297      1782.836    1593.319      2995.660      1785.078    1640.529
     3063.870      1840.209    1601.802      3069.583      1845.926    1649.272
     3134.856      1897.428    1604.821      3142.924      1906.626    1651.831
     3204.688      1953.516    1603.634      3215.223      1966.313    1650.944
     3274.196      2009.115    1610.729      3287.238      2025.535    1658.843
     1516.485      1018.294    1657.006      1517.891      1008.024    1700.851
     1606.264      1066.432    1659.002      1605.169      1055.256    1703.388
     1695.967      1116.063    1653.972      1692.404      1103.891    1698.995
     1785.359      1166.197    1651.408      1779.425      1153.076    1696.091
     1873.625      1216.631    1653.503      1865.357      1202.401    1698.341
     1959.953      1268.146    1655.942      1949.588      1252.937    1700.126
     2042.597      1320.951    1659.353      2030.377      1304.672    1703.303
     2127.028      1383.194    1643.259      2107.568      1358.522    1705.726
     2229.367      1429.250    1630.338      2215.246      1409.950    1675.121
     2342.114      1478.736    1571.664      2313.478      1436.930    1662.974
     2419.735      1506.592    1570.543      2407.475      1487.775    1615.727
     2497.009      1548.507    1570.739      2487.084      1532.520    1615.586
     2572.925      1597.182    1573.470      2565.301      1584.260    1618.829
     2647.770      1649.301    1576.067      2642.436      1639.589    1621.712
     2721.647      1703.038    1580.921      2718.558      1696.562    1626.799
     2794.935      1757.939    1588.849      2794.056      1754.708    1635.140
     2867.923      1814.045    1591.015      2869.255      1814.101    1637.574
     2940.525      1870.753    1592.347      2944.104      1874.154    1639.341
     3013.007      1928.142    1596.591      3018.884      1934.955    1643.857
     3085.308      1986.096    1600.861      3093.556      1996.406    1648.288
     3156.830      2043.901    1602.063      3167.550      2057.820    1649.491
     3227.566      2101.601    1608.679      3240.810      2119.204    1656.530
     1465.507      1102.570    1652.641      1468.547      1092.665    1696.167
     1555.712      1150.753    1654.468      1556.039      1140.011    1698.624
     1645.707      1200.636    1649.040      1643.357      1188.947    1694.185
     1735.618      1251.657    1644.211      1730.704      1239.117    1689.022
     1824.637      1303.130    1647.910      1817.276      1289.631    1692.463
     1912.935      1356.691    1653.368      1903.398      1342.291    1697.134
     2002.061      1414.156    1657.815      1990.507      1398.584    1701.714
     2103.335      1484.547    1645.021      2085.071      1461.471    1705.474
     2205.259      1551.001    1584.027      2175.855      1512.059    1674.455
     2272.875      1513.029    1578.534      2243.808      1472.641    1669.219
     2358.429      1579.816    1576.718      2346.886      1563.232    1621.376
     2438.530      1632.535    1575.853      2429.275      1618.626    1620.593
     2516.050      1683.897    1578.146      2508.978      1672.774    1623.569
     2592.231      1736.565    1579.393      2587.348      1728.437    1625.109
     2667.343      1790.447    1580.909      2664.619      1785.400    1626.832
     2741.656      1845.279    1587.061      2741.075      1843.375    1633.236
     2815.621      1901.280    1591.653      2817.191      1902.583    1638.166
     2889.244      1958.084    1592.408      2892.997      1962.664    1639.180
     2962.785      2015.734    1594.338      2968.780      2023.674    1641.428
     3036.695      2074.785    1598.593      3045.023      2086.186    1646.030
     3111.174      2135.911    1601.282      3121.922      2150.844    1648.498
     3188.013      2203.762    1607.594      3201.283      2222.316    1654.843
     1414.498      1186.195    1650.669      1419.253      1176.632    1694.266
     1505.139      1234.259    1651.581      1506.943      1223.917    1695.800
     1595.497      1284.161    1644.761      1594.400      1272.980    1689.747
     1685.982      1335.570    1637.559      1682.094      1323.610    1682.281
     1775.822      1387.558    1641.446      1769.294      1374.756    1685.579
     1865.062      1441.971    1650.399      1856.074      1428.235    1693.900
     1955.869      1502.363    1655.592      1944.450      1487.278    1699.472
     2056.031      1577.084    1649.984      2039.097      1556.314    1704.010
     2139.417      1591.382    1589.495      2109.755      1553.933    1679.727
     2219.868      1619.283    1586.593      2206.835      1602.103    1631.382
     2302.521      1667.138    1581.663      2291.584      1652.313    1626.932
     2382.978      1718.018    1579.133      2374.228      1705.821    1624.378
     2461.105      1769.442    1582.337      2454.500      1759.997    1627.575
     2538.001      1822.277    1584.531      2533.489      1815.675    1630.155
     2613.924      1876.360    1585.938      2611.500      1872.727    1631.824
     2689.078      1931.459    1589.926      2688.740      1930.888    1636.097
     2763.838      1987.644    1594.153      2765.604      1990.225    1640.643
     2838.305      2044.632    1595.073      2842.208      2050.453    1641.735
     2912.655      2102.286    1594.715      2918.747      2111.437    1641.535
     2987.483      2161.077    1596.305      2995.873      2173.712    1643.576
     3063.548      2221.505    1598.687      3074.357      2237.786    1646.050
     3143.225      2285.343    1605.679      3156.478      2305.262    1652.775
     1363.464      1269.411    1649.025      1370.013      1260.192    1692.843
     1454.505      1317.254    1647.466      1457.846      1307.307    1691.923
     1545.292      1366.530    1641.221      1545.477      1355.820    1686.069
     1636.171      1417.325    1634.383      1633.287      1405.838    1679.094
     1726.550      1468.986    1637.145      1720.729      1456.696    1681.252
     1815.936      1522.993    1646.801      1807.383      1509.904    1689.838
     1905.647      1583.894    1651.422      1894.251      1569.490    1694.639
     2012.099      1679.381    1605.472      1981.378      1644.066    1697.540
     2075.095      1634.157    1596.200      2045.795      1598.925    1684.529
     2164.820      1697.656    1592.588      2152.197      1682.161    1638.243
     2248.629      1750.361    1587.075      2238.169      1737.253    1632.873
     2329.411      1801.952    1583.443      2321.078      1791.389    1628.838
     2407.864      1853.746    1585.983      2401.602      1845.839    1631.243
     2485.159      1906.899    1587.586      2480.927      1901.754    1633.273
     2561.475      1961.204    1591.057      2559.282      1958.961    1636.864
     2637.179      2016.674    1594.164      2637.029      2017.443    1640.332
     2712.463      2073.130    1596.609      2714.383      2077.021    1643.074
     2787.505      2130.394    1598.588      2791.528      2137.502    1645.099
     2862.281      2187.936    1596.656      2868.461      2198.363    1643.256
     2937.268      2245.989    1595.609      2945.709      2259.895    1642.555
     3013.279      2305.020    1597.499      3024.104      2322.553    1644.634
     3091.831      2365.972    1604.524      3105.116      2387.114    1651.727
     1312.271      1352.472    1646.019      1320.698      1343.591    1690.065
     1403.791      1399.685    1642.863      1408.725      1390.146    1687.151
     1495.098      1447.955    1637.216      1496.614      1437.683    1681.851
     1586.357      1497.217    1633.206      1584.520      1486.203    1677.650
     1677.057      1547.437    1635.311      1671.972      1535.621    1679.291
     1766.581      1599.493    1642.556      1758.366      1586.779    1685.863
     1855.293      1655.794    1646.556      1843.985      1641.888    1689.424
     1958.008      1734.351    1601.398      1927.641      1701.438    1691.323
     2034.487      1748.876    1599.870      2020.876      1733.559    1644.317
     2115.723      1786.984    1598.010      2103.541      1773.064    1644.794
     2197.662      1834.550    1591.107      2187.554      1822.967    1637.319
     2277.791      1884.979    1587.284      2269.767      1875.924    1632.682
     2356.115      1936.847    1589.065      2350.090      1930.385    1634.417
     2433.495      1990.364    1589.544      2429.460      1986.631    1635.172
     2509.947      2045.068    1593.521      2507.911      2044.199    1639.300
     2585.893      2100.988    1597.104      2585.870      2103.106    1643.224
     2661.441      2157.791    1598.173      2663.462      2163.015    1644.570
     2736.749      2215.389    1600.522      2740.858      2223.832    1647.031
     2811.702      2273.060    1599.031      2817.949      2284.819    1645.555
     2886.474      2330.655    1597.245      2894.950      2345.868    1643.955