NOECHO

-- =============================================================================
--
-- Exported from reek_sim_grid
--
-- =============================================================================

MAPUNITS
'METRES  ' /

MAPAXES
456510.625 5938935.500
456510.625 5926880.172
467216.753 5926880.172 /

GRIDUNIT
'METRES  ' '        ' /

SPECGRID
  40  64  14   1  F  /

GDORIENT
INC INC INC DOWN RIGHT /

COORD
        0.448      8808.052    1726.187         0.000      8807.787    1769.115
      140.631      8888.984    1726.715       140.642      8888.991    1769.945
      280.728      8969.870    1728.305       281.386      8970.249    1771.965
      420.738      9050.704    1730.208       422.284      9051.597    1774.028
      560.654      9131.484    1732.238       563.360      9133.048    1776.181
      700.474      9212.209    1734.517       704.625      9214.607    1778.579
      840.195      9292.877    1736.793       846.065      9296.268    1781.016
      979.825      9373.493    1738.491       987.649      9378.013    1782.981
     1119.418      9454.086    1738.910      1129.294      9459.791    1783.585
     1258.847      9534.583    1737.206      1270.592      9541.369    1781.961
     1397.942      9614.890    1734.019      1411.329      9622.624    1778.849
     1536.590      9694.939    1730.657      1551.747      9703.696    1775.563
     1675.459      9775.113    1729.392      1692.619      9785.029    1774.584
     1814.360      9855.307    1729.537      1833.784      9866.530    1775.062
     1953.583      9935.687    1730.842      1975.387      9948.286    1776.700
     2093.061     10016.214    1732.657      2117.247     10030.189    1778.629
     2232.090     10096.482    1733.923      2258.963     10112.009    1780.070
     2371.493     10176.965    1735.409      2400.668     10193.823    1781.979
     2511.730     10257.932    1738.334      2542.458     10275.686    1785.651
     2652.899     10339.436    1744.026      2685.013     10357.991    1792.407
     2793.627     10420.686    1750.489      2827.234     10440.100    1798.896
     2934.136     10501.811    1755.304      2968.882     10521.881    1803.149
     3073.712     10582.396    1756.418      3109.239     10602.914    1803.726
     3213.502     10663.106    1755.788      3249.198     10683.718    1803.221
     3354.571     10744.553    1755.655      3390.041     10765.032    1803.403
     3495.150     10825.718    1754.833      3530.160     10845.929    1802.438
     3633.955     10905.858    1753.597      3669.434     10926.338    1801.646
     3771.626     10985.343    1754.531      3807.855     11006.255    1803.694
     3910.242     11065.375    1759.885      3945.529     11085.739    1810.209
     4048.546     11145.227    1767.424      4080.735     11163.802    1817.703
     4187.562     11225.491    1781.540      4218.779     11243.502    1832.707
     4332.129     11308.955    1809.261      4363.542     11327.079    1859.283
     4474.533     11391.173    1831.584      4507.895     11410.421    1883.494
     4610.660     11469.766    1839.340      4645.388     11489.804    1896.316
     4756.740     11554.102    1864.285      4787.206     11571.682    1916.881
     4903.678     11638.934    1892.831      4930.985     11654.692    1939.259
     5044.586     11720.285    1906.261      5072.307     11736.285    1951.910
     5182.989     11800.193    1908.761      5210.322     11815.969    1955.278
     5323.619     11881.386    1910.906      5347.905     11895.404    1957.276
     5465.685     11963.407    1916.136      5487.161     11975.805    1962.814
     5606.116     12044.509    1919.723      5624.957     12055.328    1965.260
       79.735      8670.405    1724.425        79.714      8670.189    1767.712
      219.842      8751.335    1724.815       220.443      8751.395    1768.414
      359.844      8832.217    1726.065       361.304      8832.648    1770.053
      499.737      8913.049    1727.817       502.359      8913.986    1771.865
      639.490      8993.817    1729.491       643.610      8995.415    1773.671
      779.138      9074.535    1731.576       785.080      9076.946    1775.846
      918.705      9155.213    1733.956       926.803      9158.595    1778.370
     1058.237      9235.875    1736.092      1068.795      9240.367    1780.781
     1197.841      9316.565    1737.380      1210.937      9322.209    1782.255
     1337.341      9397.209    1736.926      1352.708      9403.897    1781.897
     1476.392      9477.659    1734.723      1493.703      9485.245    1779.674
     1614.700      9557.781    1731.376      1633.970      9566.269    1776.297
     1753.135      9637.959    1729.493      1774.569      9647.433    1774.599
     1891.450      9718.086    1728.677      1915.369      9728.687    1774.176
     2030.224      9798.411    1729.244      2056.628      9810.149    1774.896
     2169.378      9878.891    1730.380      2198.386      9891.855    1776.121
     2308.177      9959.185    1730.970      2340.304      9973.670    1776.830
     2447.569     10039.714    1732.145      2482.890     10055.840    1778.434
     2587.941     10120.654    1734.828      2625.710     10138.192    1781.830
     2728.756     10201.767    1739.202      2768.156     10220.454    1786.760
     2869.480     10282.799    1744.354      2910.863     10302.934    1792.511
     3011.240     10364.300    1749.528      3052.941     10385.212    1796.837
     3151.249     10444.882    1750.735      3192.922     10466.495    1798.003
     3292.193     10525.906    1751.439      3332.949     10547.808    1798.839
     3433.160     10606.947    1751.523      3472.676     10628.938    1798.953
     3573.450     10687.630    1751.051      3612.708     10710.194    1798.478
     3711.742     10767.144    1749.932      3751.791     10790.837    1797.781
     3847.917     10845.318    1749.961      3888.621     10870.025    1798.958
     3986.980     10925.170    1757.012      4027.053     10950.064    1808.561
     4125.477     11004.640    1766.757      4159.902     11026.484    1816.061
     4263.103     11083.550    1780.202      4298.600     11106.446    1834.752
     4410.880     11169.143    1813.286      4445.863     11191.942    1866.514
     4552.996     11251.252    1835.822      4590.217     11275.597    1891.645
     4688.314     11329.079    1842.689      4724.806     11352.863    1900.259
     4837.765     11416.218    1873.093      4868.502     11436.051    1923.159
     4988.295     11503.934    1906.076      5016.038     11521.618    1949.504
     5124.165     11582.217    1910.615      5154.213     11601.172    1955.436
     5258.914     11659.842    1907.281      5289.066     11678.683    1953.564
     5399.894     11741.392    1909.197      5426.871     11758.089    1955.280
     5542.562     11823.943    1914.344      5566.497     11838.639    1960.298
     5683.183     11905.211    1917.880      5704.659     11918.269    1962.642
      159.022      8532.741    1723.652       159.472      8532.608    1766.859
      299.070      8613.675    1724.045       300.310      8613.819    1767.523
      438.943      8694.556    1724.097       441.252      8695.063    1767.655
      578.656      8775.376    1725.088       582.450      8776.381    1768.959
      718.222      8856.141    1726.716       723.905      8857.790    1770.736
      857.595      8936.839    1728.375       865.562      8939.275    1772.514
      996.765      9017.464    1730.045      1007.419      9020.834    1774.292
     1136.006      9098.107    1732.229      1149.688      9102.534    1776.590
     1275.608      9178.867    1734.577      1292.428      9184.397    1779.076
     1415.689      9259.789    1736.622      1435.447      9266.359    1781.426
     1555.735      9340.705    1737.551      1578.036      9348.183    1782.568
     1694.855      9421.316    1736.550      1719.411      9429.596    1781.495
     1832.768      9501.522    1733.985      1859.537      9510.581    1778.870
     1969.432      9581.308    1730.614      1998.630      9591.214    1775.592
     2106.547      9661.239    1728.641      2138.443      9672.104    1774.015
     2245.008      9741.599    1728.556      2279.654      9753.505    1774.104
     2384.295      9822.200    1729.334      2422.775      9835.631    1775.089
     2524.729      9903.151    1731.140      2568.004      9918.626    1777.485
     2665.988      9984.347    1734.062      2713.231     10001.824    1780.917
     2806.661     10065.265    1737.234      2855.001     10083.951    1783.010
     2943.475     10144.517    1737.194      2994.504     10165.340    1784.260
     3085.174     10225.576    1740.693      3136.518     10247.910    1788.246
     3227.984     10307.078    1743.853      3277.871     10330.389    1791.769
     3372.430     10389.453    1748.011      3420.366     10413.595    1796.530
     3514.473     10470.781    1750.057      3558.756     10494.755    1796.885
     3653.476     10550.489    1749.510      3698.734     10576.632    1797.520
     3791.971     10629.823    1750.164      3838.168     10658.046    1798.454
     3927.569     10707.190    1751.319      3974.806     10737.494    1801.069
     4066.098     10786.211    1759.247      4111.629     10816.782    1811.132
     4202.722     10863.707    1768.533      4243.560     10892.396    1820.844
     4355.454     10952.711    1804.250      4396.684     10982.689    1862.233
     4498.359     11035.020    1830.425      4534.753     11062.039    1882.941
     4628.844     11108.448    1837.049      4668.166     11137.836    1894.012
     4772.188     11191.971    1856.878      4807.214     11217.879    1909.568
     4926.965     11284.096    1895.393      4957.479     11306.085    1940.968
     5068.434     11366.335    1912.285      5099.774     11388.248    1955.920
     5197.919     11440.160    1907.633      5233.104     11464.213    1954.243
     5334.945     11519.233    1907.260      5369.096     11542.159    1954.191
     5478.258     11602.524    1911.803      5507.901     11622.064    1957.345
     5620.476     11684.992    1915.394      5646.950     11702.150    1960.817
     5761.106     11766.351    1918.491      5785.332     11781.805    1962.779
      238.326      8395.078    1722.654       239.269      8395.037    1765.504
      378.352      8476.023    1723.741       380.260      8476.254    1766.850
      518.217      8556.930    1724.533       521.446      8557.516    1767.858
      657.734      8637.754    1724.226       662.795      8638.823    1767.823
      796.893      8718.481    1724.124       804.291      8720.171    1767.910
      935.907      8799.161    1725.330       946.143      8801.608    1769.298
     1074.811      8879.807    1727.191      1088.390      8883.148    1771.301
     1213.499      8960.396    1728.808      1230.843      8964.747    1773.014
     1352.407      9041.040    1730.589      1373.670      9046.445    1774.910
     1492.096      9121.882    1732.843      1516.992      9128.273    1777.293
     1632.498      9202.914    1735.270      1660.612      9210.178    1779.916
     1772.915      9283.959    1737.149      1803.947      9292.010    1782.007
     1912.182      9364.711    1737.281      1945.935      9373.488    1782.405
     2050.225      9445.149    1736.046      2086.200      9454.522    1780.970
     2186.839      9525.208    1733.120      2224.821      9535.149    1777.815
     2323.359      9605.215    1730.039      2363.922      9615.947    1774.972
     2461.355      9685.556    1728.487      2506.298      9697.700    1773.415
     2602.040      9766.556    1729.483      2654.733      9781.296    1775.974
     2744.207      9847.915    1732.171      2801.285      9864.694    1777.483
     2881.165      9927.580    1731.539      2940.262      9946.169    1775.529
     3013.770     10005.411    1727.889      3075.711     10026.619    1773.160
     3154.091     10085.387    1728.670      3216.954     10109.153    1776.170
     3298.966     10166.959    1731.839      3357.829     10191.817    1779.721
     3445.624     10249.548    1736.968      3501.162     10275.867    1785.940
     3589.482     10331.213    1740.953      3642.036     10359.012    1789.455
     3731.431     10412.155    1744.556      3784.872     10443.299    1794.166
     3872.219     10492.569    1749.349      3926.625     10526.975    1799.341
     4007.408     10569.218    1752.222      4062.939     10606.892    1803.444
     4146.489     10648.098    1762.197      4198.422     10685.750    1814.705
     4287.251     10727.866    1777.908      4336.679     10766.237    1834.514
     4445.943     10822.038    1820.460      4493.133     10860.810    1881.179
     4580.222     10896.675    1835.783      4621.049     10931.575    1893.182
     4709.662     10967.537    1843.149      4750.635     11003.106    1902.002
     4861.227     11058.702    1878.072      4895.992     11088.309    1927.901
     5013.341     11150.617    1911.227      5044.813     11176.088    1953.869
     5142.982     11224.295    1911.172      5179.217     11251.984    1955.765
     5271.870     11297.603    1906.439      5312.200     11327.239    1953.775
     5412.588     11379.493    1909.861      5449.862     11406.143    1956.061
     5556.311     11463.370    1913.810      5588.198     11485.599    1958.710
     5698.241     11545.837    1916.185      5727.380     11565.672    1962.023
     5839.149     11627.488    1919.250      5866.280     11645.566    1963.907
      317.538      8257.417    1718.072       318.980      8257.466    1760.478
      457.433      8338.350    1719.012       460.023      8338.662    1761.652
      597.306      8419.272    1721.806       601.483      8419.928    1764.774
      736.984      8500.160    1723.948       743.357      8501.276    1767.173
      876.177      8580.956    1724.610       885.363      8582.660    1768.050
     1014.673      8661.612    1724.235      1027.276      8664.028    1767.830
     1152.770      8742.184    1724.495      1169.460      8745.450    1768.316
     1290.901      8822.761    1725.873      1312.239      8826.989    1769.903
     1429.265      8903.380    1727.638      1455.455      8908.614    1771.841
     1568.062      8984.087    1729.370      1598.765      8990.258    1773.667
     1707.547      9064.935    1731.318      1742.196      9071.924    1775.670
     1847.703      9145.923    1733.579      1885.911      9153.645    1778.103
     1988.356      9227.017    1735.826      2029.595      9235.360    1780.480
     2129.130      9308.139    1737.388      2172.982      9317.022    1782.295
     2268.950      9389.068    1737.115      2315.003      9398.438    1782.300
     2407.908      9469.821    1735.448      2455.797      9479.673    1780.368
     2543.936      9549.935    1730.599      2593.942      9560.473    1772.954
     2679.994      9629.953    1726.436      2741.814      9643.547    1772.005
     2819.566      9710.605    1726.428      2885.962      9726.129    1769.059
     2950.981      9788.951    1722.332      3023.631      9807.561    1765.449
     3084.371      9867.057    1719.346      3161.261      9889.241    1764.673
     3226.400      9947.084    1719.976      3302.752      9972.300    1767.635
     3372.198     10028.221    1722.067      3439.999     10054.197    1769.107
     3516.667     10108.962    1724.328      3579.090     10136.862    1772.496
     3660.586     10189.724    1728.222      3722.160     10221.589    1778.133
     3805.764     10271.690    1735.288      3868.034     10308.351    1786.410
     3947.309     10351.984    1742.259      4010.594     10393.483    1793.741
     4084.257     10429.081    1748.465      4150.336     10476.607    1802.533
     4227.871     10510.717    1763.073      4287.724     10557.642    1818.189
     4373.659     10593.993    1784.223      4432.184     10644.014    1848.105
     4517.521     10675.158    1807.460      4579.701     10733.039    1885.261
     4665.646     10760.485    1839.765      4703.730     10798.915    1894.861
     4804.836     10838.490    1863.254      4840.316     10875.579    1916.261
     4955.845     10931.049    1901.069      4987.617     10963.248    1946.205
     5091.582     11009.708    1912.367      5126.465     11042.104    1956.525
     5215.342     11078.988    1906.977      5257.053     11114.071    1953.391
     5348.135     11156.026    1907.594      5392.428     11190.908    1954.558
     5490.814     11240.012    1912.505      5530.727     11270.184    1958.092
     5632.287     11322.619    1912.531      5666.974     11347.990    1958.470
     5774.480     11405.512    1914.348      5807.180     11428.741    1962.895
     5916.645     11488.187    1918.903      5946.972     11509.175    1965.054
      396.688      8119.752    1713.149       398.617      8119.879    1755.095
      536.403      8200.669    1713.744       539.671      8201.049    1755.920
      676.095      8281.579    1716.659       681.208      8282.285    1759.163
      815.702      8362.480    1719.884       823.374      8363.619    1762.677
      955.123      8443.353    1722.680       966.085      8445.043    1765.726
     1093.909      8524.129    1723.952      1108.911      8526.485    1767.255
     1231.783      8604.760    1724.126      1251.609      8607.907    1767.666
     1368.942      8685.277    1724.174      1394.238      8689.313    1767.889
     1506.153      8765.803    1724.893      1537.188      8770.767    1768.789
     1644.174      8846.458    1726.435      1680.683      8852.302    1770.523
     1782.688      8927.192    1728.054      1824.088      8933.820    1772.318
     1921.848      9008.031    1729.918      1967.435      9015.327    1774.222
     2062.266      9089.073    1732.053      2111.409      9096.936    1776.447
     2204.952      9170.478    1734.486      2256.807      9178.782    1779.004
     2349.563      9252.198    1736.760      2403.458      9260.858    1781.373
     2492.800      9333.714    1736.721      2548.987      9342.825    1781.245
     2630.991      9414.420    1731.976      2687.611      9423.829    1772.973
     2762.361      9493.916    1723.524      2830.560      9505.802    1766.303
     2894.278      9573.269    1718.679      2973.515      9588.076    1760.189
     3025.254      9651.835    1714.699      3113.688      9670.374    1757.755
     3159.082      9730.131    1711.950      3251.719      9752.774    1757.732
     3303.406      9810.452    1713.222      3391.835      9836.053    1760.081
     3447.531      9890.512    1713.483      3523.322      9916.864    1758.914
     3589.230      9969.429    1713.246      3659.772      9999.088    1760.948
     3730.960     10048.109    1715.364      3800.334     10083.102    1765.400
     3876.602     10129.158    1722.892      3946.690     10170.704    1774.769
     4016.859     10207.493    1729.818      4086.639     10254.839    1781.286
     4152.848     10282.504    1736.158      4230.054     10341.280    1793.695
     4300.790     10366.529    1752.547      4369.251     10424.442    1811.778
     4453.038     10454.777    1777.166      4504.769     10503.348    1833.196
     4592.686     10529.774    1792.557      4668.107     10609.217    1887.830
     4761.212     10636.438    1851.884      4794.087     10676.540    1903.114
     4907.839     10722.495    1889.449      4937.827     10761.552    1938.485
     5046.872     10802.293    1912.337      5076.191     10838.086    1955.426
     5170.553     10867.953    1910.224      5206.729     10906.521    1954.584
     5293.028     10936.815    1906.551      5339.093     10979.304    1954.298
     5427.683     11016.690    1910.327      5474.978     11056.320    1956.924
     5569.361     11100.709    1914.338      5611.134     11133.791    1959.449
     5710.866     11183.699    1914.038      5747.979     11211.921    1961.315
     5853.520     11267.133    1916.208      5888.066     11292.531    1965.686
     5995.818     11350.039    1920.768      6028.470     11373.337    1967.641
      475.873      7982.088    1709.812       478.258      7982.284    1751.301
      615.414      8063.000    1709.982       619.326      8063.435    1751.666
      754.774      8143.889    1711.713       760.780      8144.629    1753.736
      894.022      8224.765    1714.408       902.922      8225.909    1756.736
     1033.188      8305.634    1717.524      1045.832      8307.286    1760.148
     1172.299      8386.500    1720.764      1189.557      8388.767    1763.720
     1311.099      8467.330    1723.519      1333.806      8470.311    1766.656
     1448.574      8547.988    1724.390      1477.449      8551.769    1767.701
     1584.805      8628.487    1724.091      1620.138      8633.094    1767.611
     1720.910      8708.975    1723.960      1762.491      8714.370    1767.702
     1858.451      8789.649    1725.261      1905.747      8795.759    1769.280
     1996.880      8870.435    1726.957      2049.175      8877.170    1771.146
     2136.916      8951.425    1728.636      2193.428      8958.691    1772.895
     2280.790      9032.908    1730.635      2340.466      9040.574    1774.916
     2429.184      9114.979    1733.236      2490.871      9122.904    1777.229
     2578.467      9197.185    1734.665      2640.022      9205.129    1776.587
     2715.946      9277.900    1727.586      2779.374      9286.249    1767.418
     2848.496      9357.959    1719.134      2922.129      9368.086    1759.332
     2966.829      9435.726    1707.852      3069.606      9451.089    1753.988
     3106.059      9515.861    1707.010      3204.499      9532.991    1749.998
     3244.094      9595.344    1706.511      3347.415      9616.851    1752.248
     3384.818      9674.891    1706.911      3479.433      9698.859    1751.310
     3521.218      9752.485    1703.968      3605.310      9778.843    1748.403
     3661.662      9830.294    1703.158      3742.170      9861.777    1751.379
     3804.110      9908.353    1705.474      3879.142      9944.704    1754.283
     3946.566      9986.333    1710.338      4022.397     10031.020    1761.897
     4086.292     10062.787    1716.780      4161.624     10115.156    1768.468
     4222.122     10136.102    1722.662      4304.883     10202.076    1780.983
     4373.054     10221.915    1738.549      4441.089     10283.017    1795.425
     4520.891     10305.348    1754.457      4574.656     10359.714    1812.085
     4667.032     10384.254    1772.836      4760.335     10494.755    1893.447
     4858.559     10524.808    1868.076      4888.480     10569.524    1919.506
     5000.571     10604.401    1901.327      5027.550     10648.385    1951.698
     5130.382     10668.399    1910.032      5160.125     10709.948    1955.411
     5250.579     10728.778    1906.798      5289.814     10773.993    1953.186
     5375.241     10800.059    1908.438      5423.397     10846.847    1955.356
     5509.486     10879.984    1913.097      5558.459     10922.585    1958.829
     5647.799     10961.581    1914.821      5691.408     10997.169    1960.244
     5791.778     11046.745    1918.044      5831.075     11077.417    1966.489
     5935.668     11131.205    1922.241      5970.780     11157.630    1970.901
     6077.625     11213.897    1925.743      6111.593     11238.646    1972.250
      555.114      7844.431    1708.304       557.941      7844.689    1749.491
      694.518      7925.344    1708.039       699.041      7925.827    1749.322
      833.592      8006.223    1708.646       840.422      8006.988    1750.191
      972.446      8087.081    1710.308       982.467      8088.219    1752.145
     1111.069      8167.921    1712.477      1125.218      8169.522    1754.615
     1249.599      8248.756    1715.227      1268.825      8250.913    1757.683
     1388.184      8329.605    1718.498      1413.464      8332.407    1761.268
     1526.897      8410.471    1721.930      1558.937      8413.979    1764.969
     1664.896      8491.262    1724.088      1703.802      8495.469    1767.296
     1801.300      8571.885    1724.411      1846.964      8576.766    1767.836
     1936.529      8652.388    1723.906      1988.426      8657.876    1767.592
     2073.018      8733.025    1724.239      2130.464      8739.052    1768.160
     2213.657      8814.091    1725.844      2275.887      8820.589    1769.855
     2359.870      8895.735    1727.714      2426.204      8902.637    1771.852
     2511.893      8977.984    1729.763      2578.609      8984.907    1772.131
     2659.950      9059.838    1727.185      2724.874      9066.570    1766.426
     2798.816      9140.779    1719.011      2869.223      9148.111    1758.176
     2897.497      9217.522    1693.375      3019.324      9230.401    1752.009
     3041.141      9298.599    1694.089      3166.658      9313.425    1747.777
     3190.838      9380.050    1697.190      3296.819      9395.463    1743.011
     3336.352      9461.207    1700.837      3439.374      9479.500    1744.644
     3467.468      9539.298    1699.089      3566.478      9561.116    1742.578
     3598.112      9615.709    1696.008      3693.855      9642.421    1742.269
     3738.413      9693.381    1696.855      3827.972      9725.192    1745.268
     3881.118      9771.251    1699.619      3962.157      9807.686    1747.455
     4020.179      9846.357    1701.588      4100.194      9892.027    1752.233
     4160.652      9921.670    1707.253      4241.734      9978.631    1760.450
     4303.267      9999.384    1715.879      4385.252     10066.914    1772.662
     4453.839     10085.699    1729.434      4520.172     10147.617    1784.431
     4597.776     10166.490    1739.930      4650.130     10221.925    1795.612
     4741.842     10243.960    1755.830      4839.034     10369.936    1884.133
     4889.822     10320.168    1777.295      4961.242     10440.087    1902.358
     5071.740     10459.689    1877.429      5102.200     10511.577    1934.563
     5206.214     10528.492    1896.272      5242.225     10578.599    1949.033
     5331.424     10594.226    1902.852      5377.137     10646.416    1953.553
     5461.770     10669.882    1911.747      5512.171     10718.872    1958.033
     5592.268     10745.314    1914.314      5642.138     10789.017    1959.037
     5727.303     10823.834    1914.721      5774.949     10863.134    1963.059
     5876.231     10912.902    1925.541      5915.965     10944.272    1972.576
     6018.630     10996.139    1928.839      6054.398     11023.349    1976.054
     6160.653     11078.834    1931.172      6195.601     11104.533    1976.935
      634.504      7706.790    1709.439       637.777      7707.110    1750.672
      773.920      7787.721    1709.323       779.076      7788.253    1750.715
      912.771      7868.599    1708.341       920.394      7869.390    1749.637
     1051.172      7949.440    1708.117      1062.210      7950.568    1749.486
     1189.247      8030.258    1708.978      1204.726      8031.808    1750.639
     1327.173      8111.073    1710.900      1348.100      8113.119    1752.854
     1464.885      8191.878    1713.277      1492.298      8194.495    1755.538
     1602.734      8272.704    1716.130      1637.320      8275.930    1758.704
     1741.296      8353.602    1719.432      1783.139      8357.417    1762.340
     1880.324      8434.546    1722.590      1929.067      8438.889    1765.706
     2018.233      8515.391    1724.480      2072.999      8520.168    1767.494
     2154.077      8596.055    1724.128      2215.458      8601.323    1768.100
     2293.915      8677.053    1724.136      2359.437      8682.620    1767.623
     2441.879      8758.727    1725.003      2512.538      8764.705    1768.917
     2596.105      8840.928    1725.413      2664.812      8846.741    1766.025
     2741.272      8922.383    1718.332      2808.001      8928.010    1755.667
     2881.052      9003.427    1708.558      2958.081      9009.814    1747.766
     2968.823      9080.296    1678.364      3116.134      9092.318    1743.186
     3119.358      9161.547    1678.655      3223.417      9171.881    1724.755
     3277.208      9243.935    1685.608      3384.372      9257.147    1732.808
     3425.172      9325.670    1691.280      3530.521      9341.645    1736.495
     3553.429      9403.998    1690.817      3662.719      9424.773    1738.374
     3687.697      9482.187    1692.999      3789.385      9506.985    1740.427
     3821.312      9558.845    1694.060      3916.342      9588.549    1742.194
     3958.040      9635.240    1696.003      4047.325      9670.233    1743.271
     4097.365      9709.099    1696.808      4181.840      9754.552    1747.348
     4242.122      9785.659    1702.773      4323.690      9842.817    1755.752
     4388.707      9866.326    1711.215      4466.281      9931.414    1766.097
     4539.094      9953.926    1723.137      4605.630     10015.973    1778.317
     4682.305     10036.609    1732.911      4732.762     10087.069    1783.914
     4788.118     10073.799    1703.944      4863.023     10161.811    1796.468
     4922.594     10128.905    1706.780      5037.175     10293.108    1873.945
     5131.732     10299.578    1834.827      5171.815     10354.644    1896.695
     5269.180     10375.022    1864.466      5316.693     10432.688    1926.191
     5402.024     10450.415    1885.605      5459.860     10511.820    1945.157
     5541.326     10534.020    1905.325      5600.341     10589.346    1957.184
     5676.112     10612.266    1913.408      5729.179     10658.017    1959.720
     5815.821     10693.985    1920.835      5866.756     10735.694    1970.847
     5962.463     10780.764    1932.108      6002.369     10812.139    1977.246
     6102.370     10861.875    1933.946      6138.623     10889.353    1979.273
     6243.794     10943.998    1934.778      6279.486     10970.148    1979.669