SPECGRID
 40 64 15 1 F /
COORD
      456511.063     5935688.223  1726.187        456510.615     5935687.957  1769.115
      456651.246     5935769.154  1726.715        456651.257     5935769.161  1769.945
      456791.343     5935850.040  1728.305        456792.001     5935850.419  1771.965
      456931.353     5935930.874  1730.208        456932.899     5935931.768  1774.028
      457071.269     5936011.654  1732.238        457073.975     5936013.219  1776.181
      457211.089     5936092.379  1734.517        457215.240     5936094.777  1778.579
      457350.810     5936173.048  1736.793        457356.680     5936176.438  1781.016
      457490.440     5936253.663  1738.491        457498.264     5936258.184  1782.981
      457630.033     5936334.257  1738.910        457639.909     5936339.961  1783.585
      457769.462     5936414.753  1737.206        457781.207     5936421.539  1781.961
      457908.557     5936495.061  1734.019        457921.944     5936502.794  1778.849
      458047.205     5936575.109  1730.657        458062.362     5936583.866  1775.563
      458186.074     5936655.283  1729.392        458203.234     5936665.199  1774.584
      458324.975     5936735.478  1729.537        458344.399     5936746.700  1775.062
      458464.198     5936815.857  1730.842        458486.002     5936828.456  1776.700
      458603.676     5936896.385  1732.657        458627.862     5936910.359  1778.629
      458742.705     5936976.652  1733.923        458769.578     5936992.180  1780.070
      458882.108     5937057.136  1735.409        458911.283     5937073.993  1781.979
      459022.345     5937138.103  1738.334        459053.073     5937155.856  1785.651
      459163.514     5937219.606  1744.026        459195.628     5937238.161  1792.407
      459304.242     5937300.856  1750.489        459337.849     5937320.271  1798.896
      459444.751     5937381.981  1755.304        459479.497     5937402.052  1803.149
      459584.327     5937462.566  1756.418        459619.854     5937483.084  1803.726
      459724.117     5937543.276  1755.788        459759.813     5937563.889  1803.221
      459865.186     5937624.724  1755.655        459900.656     5937645.202  1803.403
      460005.765     5937705.889  1754.833        460040.775     5937726.100  1802.438
      460144.570     5937786.028  1753.597        460180.049     5937806.509  1801.646
      460282.241     5937865.514  1754.531        460318.470     5937886.426  1803.694
      460420.857     5937945.545  1759.885        460456.144     5937965.909  1810.209
      460559.161     5938025.397  1767.424        460591.350     5938043.973  1817.703
      460698.177     5938105.661  1781.540        460729.395     5938123.673  1832.707
      460842.744     5938189.125  1809.261        460874.157     5938207.249  1859.283
      460985.148     5938271.344  1831.584        461018.510     5938290.592  1883.494
      461121.275     5938349.937  1839.340        461156.003     5938369.975  1896.316
      461267.355     5938434.272  1864.285        461297.821     5938451.853  1916.881
      461414.293     5938519.104  1892.831        461441.600     5938534.862  1939.259
      461555.201     5938600.455  1906.261        461582.922     5938616.455  1951.910
      461693.604     5938680.363  1908.761        461720.938     5938696.140  1955.278
      461834.234     5938761.557  1910.906        461858.521     5938775.574  1957.276
      461976.300     5938843.577  1916.136        461997.776     5938855.976  1962.814
      462116.731     5938924.680  1919.723        462135.572     5938935.498  1965.260

      456590.350     5935550.575  1724.425        456590.329     5935550.359  1767.712
      456730.457     5935631.506  1724.815        456731.058     5935631.565  1768.414
      456870.459     5935712.388  1726.065        456871.919     5935712.818  1770.053
      457010.352     5935793.220  1727.817        457012.974     5935794.156  1771.865
      457150.105     5935873.987  1729.491        457154.225     5935875.585  1773.671
      457289.753     5935954.705  1731.576        457295.695     5935957.116  1775.846
      457429.320     5936035.384  1733.956        457437.418     5936038.766  1778.370
      457568.852     5936116.045  1736.092        457579.410     5936120.537  1780.781
      457708.456     5936196.735  1737.380        457721.552     5936202.379  1782.255
      457847.956     5936277.379  1736.926        457863.323     5936284.067  1781.897
      457987.007     5936357.829  1734.723        458004.318     5936365.415  1779.674
      458125.315     5936437.951  1731.376        458144.585     5936446.439  1776.297
      458263.750     5936518.129  1729.493        458285.184     5936527.604  1774.599
      458402.065     5936598.257  1728.677        458425.984     5936608.857  1774.176
      458540.839     5936678.581  1729.244        458567.243     5936690.319  1774.896
      458679.993     5936759.062  1730.380        458709.001     5936772.025  1776.121
      458818.792     5936839.355  1730.970        458850.919     5936853.841  1776.830
      458958.184     5936919.885  1732.145        458993.505     5936936.011  1778.434
      459098.556     5937000.824  1734.828        459136.325     5937018.362  1781.830
      459239.371     5937081.938  1739.202        459278.771     5937100.624  1786.760
      459380.095     5937162.970  1744.354        459421.478     5937183.104  1792.511
      459521.855     5937244.471  1749.528        459563.556     5937265.383  1796.837
      459661.864     5937325.053  1750.735        459703.537     5937346.665  1798.003
      459802.808     5937406.076  1751.439        459843.564     5937427.979  1798.839
      459943.775     5937487.117  1751.523        459983.291     5937509.108  1798.953
      460084.065     5937567.801  1751.051        460123.323     5937590.364  1798.478
      460222.357     5937647.314  1749.932        460262.406     5937671.008  1797.781
      460358.532     5937725.488  1749.961        460399.236     5937750.195  1798.958
      460497.595     5937805.341  1757.012        460537.668     5937830.234  1808.561
      460636.092     5937884.811  1766.757        460670.517     5937906.654  1816.061
      460773.718     5937963.721  1780.202        460809.215     5937986.616  1834.752
      460921.495     5938049.313  1813.286        460956.479     5938072.112  1866.514
      461063.611     5938131.423  1835.822        461100.833     5938155.768  1891.645
      461198.929     5938209.249  1842.689        461235.421     5938233.033  1900.259
      461348.380     5938296.389  1873.093        461379.117     5938316.222  1923.159
      461498.910     5938384.104  1906.076        461526.653     5938401.788  1949.504
      461634.780     5938462.388  1910.615        461664.828     5938481.343  1955.436
      461769.529     5938540.013  1907.281        461799.681     5938558.854  1953.564
      461910.509     5938621.562  1909.197        461937.486     5938638.260  1955.280
      462053.177     5938704.113  1914.344        462077.112     5938718.810  1960.298
      462193.798     5938785.382  1917.880        462215.274     5938798.439  1962.642

      456669.637     5935412.911  1723.652        456670.087     5935412.778  1766.859
      456809.685     5935493.846  1724.045        456810.925     5935493.989  1767.523
      456949.558     5935574.727  1724.097        456951.867     5935575.233  1767.655
      457089.271     5935655.546  1725.088        457093.065     5935656.552  1768.959
      457228.837     5935736.312  1726.716        457234.520     5935737.960  1770.736
      457368.210     5935817.010  1728.375        457376.177     5935819.445  1772.514
      457507.380     5935897.635  1730.045        457518.034     5935901.004  1774.292
      457646.621     5935978.277  1732.229        457660.303     5935982.704  1776.590
      457786.223     5936059.037  1734.577        457803.043     5936064.567  1779.076
      457926.304     5936139.959  1736.622        457946.062     5936146.529  1781.426
      458066.350     5936220.875  1737.551        458088.651     5936228.354  1782.568
      458205.470     5936301.486  1736.550        458230.026     5936309.767  1781.495
      458343.383     5936381.692  1733.985        458370.152     5936390.751  1778.870
      458480.047     5936461.479  1730.614        458509.245     5936471.385  1775.592
      458617.162     5936541.409  1728.641        458649.058     5936552.274  1774.015
      458755.623     5936621.770  1728.556        458790.269     5936633.676  1774.104
      458894.910     5936702.370  1729.334        458933.390     5936715.802  1775.089
      459035.344     5936783.321  1731.140        459078.619     5936798.796  1777.485
      459176.603     5936864.518  1734.062        459223.846     5936881.994  1780.917
      459317.276     5936945.436  1737.234        459365.616     5936964.121  1783.010
      459454.090     5937024.688  1737.194        459505.119     5937045.511  1784.260
      459595.789     5937105.746  1740.693        459647.133     5937128.080  1788.246
      459738.599     5937187.248  1743.853        459788.486     5937210.560  1791.769
      459883.045     5937269.623  1748.011        459930.981     5937293.766  1796.530
      460025.088     5937350.951  1750.057        460069.371     5937374.926  1796.885
      460164.091     5937430.659  1749.510        460209.349     5937456.803  1797.520
      460302.586     5937509.993  1750.164        460348.783     5937538.217  1798.454
      460438.184     5937587.360  1751.319        460485.421     5937617.664  1801.069
      460576.713     5937666.382  1759.247        460622.244     5937696.952  1811.132
      460713.337     5937743.877  1768.533        460754.175     5937772.566  1820.844
      460866.069     5937832.882  1804.250        460907.299     5937862.859  1862.233
      461008.974     5937915.190  1830.425        461045.368     5937942.209  1882.941
      461139.459     5937988.618  1837.049        461178.781     5938018.007  1894.012
      461282.803     5938072.142  1856.878        461317.829     5938098.050  1909.568
      461437.581     5938164.267  1895.393        461468.094     5938186.256  1940.968
      461579.049     5938246.506  1912.285        461610.389     5938268.418  1955.920
      461708.534     5938320.330  1907.633        461743.719     5938344.384  1954.243
      461845.561     5938399.403  1907.260        461879.711     5938422.329  1954.191
      461988.874     5938482.694  1911.803        462018.516     5938502.234  1957.345
      462131.091     5938565.162  1915.394        462157.565     5938582.320  1960.817
      462271.721     5938646.521  1918.491        462295.947     5938661.976  1962.779

      456748.941     5935275.248  1722.654        456749.884     5935275.207  1765.504
      456888.967     5935356.193  1723.741        456890.875     5935356.425  1766.850
      457028.832     5935437.101  1724.533        457032.061     5935437.687  1767.858
      457168.349     5935517.925  1724.226        457173.410     5935518.993  1767.823
      457307.508     5935598.651  1724.124        457314.906     5935600.342  1767.910
      457446.522     5935679.331  1725.330        457456.758     5935681.778  1769.298
      457585.426     5935759.978  1727.191        457599.005     5935763.318  1771.301
      457724.114     5935840.566  1728.808        457741.458     5935844.917  1773.014
      457863.022     5935921.210  1730.589        457884.285     5935926.615  1774.910
      458002.711     5936002.053  1732.843        458027.607     5936008.443  1777.293
      458143.113     5936083.084  1735.270        458171.227     5936090.349  1779.916
      458283.530     5936164.129  1737.149        458314.562     5936172.181  1782.007
      458422.797     5936244.882  1737.281        458456.550     5936253.658  1782.405
      458560.840     5936325.319  1736.046        458596.815     5936334.692  1780.970
      458697.454     5936405.378  1733.120        458735.436     5936415.319  1777.815
      458833.974     5936485.386  1730.039        458874.537     5936496.117  1774.972
      458971.970     5936565.727  1728.487        459016.913     5936577.870  1773.415
      459112.655     5936646.727  1729.483        459165.348     5936661.467  1775.974
      459254.822     5936728.085  1732.171        459311.900     5936744.864  1777.483
      459391.780     5936807.750  1731.539        459450.877     5936826.340  1775.529
      459524.385     5936885.581  1727.889        459586.326     5936906.789  1773.160
      459664.706     5936965.558  1728.670        459727.569     5936989.323  1776.170
      459809.581     5937047.129  1731.839        459868.444     5937071.987  1779.721
      459956.239     5937129.719  1736.968        460011.777     5937156.037  1785.940
      460100.097     5937211.384  1740.953        460152.651     5937239.183  1789.455
      460242.046     5937292.325  1744.556        460295.487     5937323.470  1794.166
      460382.834     5937372.739  1749.349        460437.240     5937407.146  1799.341
      460518.023     5937449.389  1752.222        460573.554     5937487.062  1803.444
      460657.104     5937528.269  1762.197        460709.037     5937565.920  1814.705
      460797.866     5937608.036  1777.908        460847.294     5937646.407  1834.514
      460956.558     5937702.208  1820.460        461003.749     5937740.980  1881.179
      461090.837     5937776.846  1835.783        461131.665     5937811.745  1893.182
      461220.277     5937847.707  1843.149        461261.250     5937883.276  1902.002
      461371.842     5937938.872  1878.072        461406.607     5937968.479  1927.901
      461523.957     5938030.787  1911.227        461555.428     5938056.259  1953.869
      461653.597     5938104.466  1911.172        461689.833     5938132.154  1955.765
      461782.485     5938177.773  1906.439        461822.815     5938207.409  1953.775
      461923.203     5938259.663  1909.861        461960.478     5938286.313  1956.061
      462066.926     5938343.540  1913.810        462098.813     5938365.770  1958.710
      462208.856     5938426.008  1916.185        462237.995     5938445.843  1962.023
      462349.764     5938507.658  1919.250        462376.896     5938525.736  1963.907

      456828.153     5935137.587  1718.072        456829.595     5935137.636  1760.478
      456968.048     5935218.521  1719.012        456970.638     5935218.832  1761.652
      457107.921     5935299.442  1721.806        457112.098     5935300.099  1764.774
      457247.599     5935380.330  1723.948        457253.972     5935381.446  1767.173
      457386.792     5935461.126  1724.610        457395.978     5935462.830  1768.050
      457525.288     5935541.782  1724.235        457537.891     5935544.198  1767.830
      457663.385     5935622.354  1724.495        457680.075     5935625.620  1768.316
      457801.516     5935702.932  1725.873        457822.854     5935707.159  1769.903
      457939.880     5935783.551  1727.638        457966.070     5935788.784  1771.841
      458078.677     5935864.258  1729.370        458109.380     5935870.429  1773.667
      458218.162     5935945.105  1731.318        458252.811     5935952.095  1775.670
      458358.318     5936026.094  1733.579        458396.526     5936033.815  1778.103
      458498.971     5936107.188  1735.826        458540.210     5936115.530  1780.480
      458639.745     5936188.310  1737.388        458683.597     5936197.192  1782.295
      458779.565     5936269.238  1737.115        458825.618     5936278.608  1782.300
      458918.523     5936349.991  1735.448        458966.412     5936359.844  1780.368
      459054.551     5936430.105  1730.599        459104.557     5936440.644  1772.954
      459190.609     5936510.123  1726.436        459252.429     5936523.718  1772.005
      459330.181     5936590.775  1726.428        459396.577     5936606.300  1769.059
      459461.596     5936669.121  1722.332        459534.246     5936687.731  1765.449
      459594.986     5936747.228  1719.346        459671.876     5936769.411  1764.673
      459737.015     5936827.254  1719.976        459813.367     5936852.471  1767.635
      459882.813     5936908.392  1722.067        459950.614     5936934.367  1769.107
      460027.282     5936989.133  1724.328        460089.705     5937017.032  1772.496
      460171.201     5937069.895  1728.222        460232.775     5937101.760  1778.133
      460316.379     5937151.860  1735.288        460378.649     5937188.521  1786.410
      460457.924     5937232.154  1742.259        460521.209     5937273.653  1793.741
      460594.872     5937309.251  1748.465        460660.951     5937356.777  1802.533
      460738.486     5937390.888  1763.073        460798.339     5937437.812  1818.189
      460884.274     5937474.163  1784.223        460942.799     5937524.185  1848.105
      461028.136     5937555.328  1807.460        461090.316     5937613.209  1885.261
      461176.261     5937640.655  1839.765        461214.345     5937679.085  1894.861
      461315.451     5937718.660  1863.254        461350.931     5937755.749  1916.261
      461466.460     5937811.220  1901.069        461498.232     5937843.418  1946.205
      461602.197     5937889.878  1912.367        461637.081     5937922.274  1956.525
      461725.958     5937959.158  1906.977        461767.668     5937994.241  1953.391
      461858.750     5938036.196  1907.594        461903.043     5938071.078  1954.558
      462001.429     5938120.183  1912.505        462041.342     5938150.354  1958.092
      462142.902     5938202.789  1912.531        462177.589     5938228.160  1958.470
      462285.095     5938285.683  1914.348        462317.795     5938308.911  1962.895
      462427.260     5938368.357  1918.903        462457.587     5938389.346  1965.054

      456907.303     5934999.922  1713.149        456909.232     5935000.049  1755.095
      457047.018     5935080.839  1713.744        457050.286     5935081.219  1755.920
      457186.710     5935161.750  1716.659        457191.823     5935162.456  1759.163
      457326.317     5935242.650  1719.884        457333.989     5935243.789  1762.677
      457465.738     5935323.523  1722.680        457476.700     5935325.213  1765.726
      457604.524     5935404.300  1723.952        457619.526     5935406.655  1767.255
      457742.398     5935484.931  1724.126        457762.224     5935488.077  1767.666
      457879.557     5935565.447  1724.174        457904.853     5935569.483  1767.889
      458016.768     5935645.974  1724.893        458047.803     5935650.938  1768.789
      458154.789     5935726.628  1726.435        458191.298     5935732.473  1770.523
      458293.303     5935807.362  1728.054        458334.703     5935813.990  1772.318
      458432.463     5935888.201  1729.918        458478.050     5935895.497  1774.222
      458572.881     5935969.243  1732.053        458622.024     5935977.106  1776.447
      458715.567     5936050.648  1734.486        458767.422     5936058.952  1779.004
      458860.178     5936132.368  1736.760        458914.073     5936141.028  1781.373
      459003.415     5936213.885  1736.721        459059.602     5936222.995  1781.245
      459141.606     5936294.591  1731.976        459198.226     5936303.999  1772.973
      459272.976     5936374.086  1723.524        459341.175     5936385.973  1766.303
      459404.893     5936453.439  1718.679        459484.130     5936468.246  1760.189
      459535.869     5936532.006  1714.699        459624.303     5936550.544  1757.755
      459669.697     5936610.302  1711.950        459762.334     5936632.944  1757.732
      459814.021     5936690.622  1713.222        459902.450     5936716.224  1760.081
      459958.146     5936770.683  1713.483        460033.937     5936797.034  1758.914
      460099.845     5936849.600  1713.246        460170.387     5936879.259  1760.948
      460241.575     5936928.279  1715.364        460310.949     5936963.272  1765.400
      460387.217     5937009.328  1722.892        460457.305     5937050.874  1774.769
      460527.474     5937087.663  1729.818        460597.254     5937135.010  1781.286
      460663.463     5937162.675  1736.158        460740.669     5937221.450  1793.695
      460811.405     5937246.699  1752.547        460879.866     5937304.612  1811.778
      460963.653     5937334.947  1777.166        461015.384     5937383.519  1833.196
      461103.301     5937409.944  1792.557        461178.722     5937489.388  1887.830
      461271.827     5937516.608  1851.884        461304.702     5937556.710  1903.114
      461418.454     5937602.665  1889.449        461448.442     5937641.723  1938.485
      461557.487     5937682.463  1912.337        461586.806     5937718.257  1955.426
      461681.168     5937748.123  1910.224        461717.344     5937786.691  1954.584
      461803.644     5937816.985  1906.551        461849.708     5937859.475  1954.298
      461938.298     5937896.860  1910.327        461985.593     5937936.490  1956.924
      462079.977     5937980.879  1914.338        462121.750     5938013.961  1959.449
      462221.481     5938063.869  1914.038        462258.594     5938092.092  1961.315
      462364.135     5938147.304  1916.208        462398.681     5938172.701  1965.686
      462506.433     5938230.209  1920.768        462539.085     5938253.508  1967.641

      456986.488     5934862.258  1709.812        456988.873     5934862.455  1751.301
      457126.029     5934943.170  1709.982        457129.941     5934943.605  1751.666
      457265.389     5935024.060  1711.713        457271.395     5935024.799  1753.736
      457404.637     5935104.936  1714.408        457413.537     5935106.080  1756.736
      457543.803     5935185.805  1717.524        457556.447     5935187.456  1760.148
      457682.914     5935266.670  1720.764        457700.172     5935268.938  1763.720
      457821.714     5935347.500  1723.519        457844.421     5935350.481  1766.656
      457959.189     5935428.158  1724.390        457988.064     5935431.939  1767.701
      458095.420     5935508.657  1724.091        458130.753     5935513.265  1767.611
      458231.525     5935589.146  1723.960        458273.106     5935594.540  1767.702
      458369.066     5935669.819  1725.261        458416.362     5935675.930  1769.280
      458507.495     5935750.605  1726.957        458559.790     5935757.341  1771.146
      458647.531     5935831.596  1728.636        458704.043     5935838.861  1772.895
      458791.405     5935913.078  1730.635        458851.081     5935920.744  1774.916
      458939.799     5935995.149  1733.236        459001.486     5936003.074  1777.229
      459089.082     5936077.355  1734.665        459150.637     5936085.300  1776.587
      459226.561     5936158.070  1727.586        459289.989     5936166.419  1767.418
      459359.111     5936238.129  1719.134        459432.744     5936248.257  1759.332
      459477.444     5936315.896  1707.852        459580.221     5936331.260  1753.988
      459616.674     5936396.031  1707.010        459715.114     5936413.161  1749.998
      459754.709     5936475.515  1706.511        459858.030     5936497.021  1752.248
      459895.433     5936555.062  1706.911        459990.048     5936579.029  1751.310
      460031.833     5936632.655  1703.968        460115.925     5936659.014  1748.403
      460172.277     5936710.465  1703.158        460252.785     5936741.947  1751.379
      460314.725     5936788.523  1705.474        460389.757     5936824.874  1754.283
      460457.181     5936866.503  1710.338        460533.012     5936911.190  1761.897
      460596.907     5936942.957  1716.780        460672.239     5936995.326  1768.468
      460732.737     5937016.272  1722.662        460815.499     5937082.246  1780.983
      460883.669     5937102.085  1738.549        460951.704     5937163.188  1795.425
      461031.506     5937185.519  1754.457        461085.271     5937239.885  1812.085
      461177.647     5937264.425  1772.836        461270.950     5937374.926  1893.447
      461369.174     5937404.979  1868.076        461399.095     5937449.694  1919.506
      461511.187     5937484.571  1901.327        461538.166     5937528.556  1951.698
      461640.998     5937548.569  1910.032        461670.740     5937590.118  1955.411
      461761.194     5937608.948  1906.798        461800.429     5937654.163  1953.186
      461885.856     5937680.229  1908.438        461934.012     5937727.018  1955.356
      462020.102     5937760.154  1913.097        462069.074     5937802.756  1958.829
      462158.415     5937841.751  1914.821        462202.023     5937877.340  1960.244
      462302.394     5937926.915  1918.044        462341.690     5937957.587  1966.489
      462446.283     5938011.375  1922.241        462481.396     5938037.801  1970.901
      462588.240     5938094.067  1925.743        462622.208     5938118.816  1972.250

      457065.729     5934724.602  1708.304        457068.556     5934724.859  1749.491
      457205.133     5934805.514  1708.039        457209.656     5934805.998  1749.322
      457344.207     5934886.394  1708.646        457351.037     5934887.158  1750.191
      457483.061     5934967.251  1710.308        457493.082     5934968.389  1752.145
      457621.684     5935048.091  1712.477        457635.833     5935049.692  1754.615
      457760.214     5935128.926  1715.227        457779.440     5935131.083  1757.683
      457898.799     5935209.775  1718.498        457924.079     5935212.577  1761.268
      458037.512     5935290.642  1721.930        458069.552     5935294.149  1764.969
      458175.511     5935371.433  1724.088        458214.417     5935375.640  1767.296
      458311.915     5935452.056  1724.411        458357.579     5935456.937  1767.836
      458447.144     5935532.559  1723.906        458499.041     5935538.046  1767.592
      458583.633     5935613.195  1724.239        458641.079     5935619.223  1768.160
      458724.272     5935694.262  1725.844        458786.502     5935700.760  1769.855
      458870.485     5935775.905  1727.714        458936.819     5935782.808  1771.852
      459022.508     5935858.154  1729.763        459089.224     5935865.077  1772.131
      459170.565     5935940.009  1727.185        459235.489     5935946.740  1766.426
      459309.431     5936020.949  1719.011        459379.838     5936028.281  1758.176
      459408.112     5936097.692  1693.375        459529.939     5936110.571  1752.009
      459551.756     5936178.770  1694.089        459677.273     5936193.596  1747.777
      459701.453     5936260.221  1697.190        459807.434     5936275.634  1743.011
      459846.967     5936341.377  1700.837        459949.989     5936359.670  1744.644
      459978.083     5936419.469  1699.089        460077.093     5936441.286  1742.578
      460108.727     5936495.879  1696.008        460204.470     5936522.592  1742.269
      460249.028     5936573.552  1696.855        460338.587     5936605.362  1745.268
      460391.733     5936651.421  1699.619        460472.772     5936687.856  1747.455
      460530.794     5936726.527  1701.588        460610.809     5936772.197  1752.233
      460671.267     5936801.841  1707.253        460752.349     5936858.802  1760.450
      460813.882     5936879.555  1715.879        460895.867     5936947.084  1772.662
      460964.454     5936965.869  1729.434        461030.787     5937027.787  1784.431
      461108.391     5937046.660  1739.930        461160.745     5937102.096  1795.612
      461252.458     5937124.131  1755.830        461349.649     5937250.106  1884.133
      461400.438     5937200.338  1777.295        461471.857     5937320.258  1902.358
      461582.355     5937339.859  1877.429        461612.815     5937391.747  1934.563
      461716.829     5937408.662  1896.272        461752.840     5937458.770  1949.033
      461842.040     5937474.396  1902.852        461887.752     5937526.586  1953.553
      461972.385     5937550.053  1911.747        462022.786     5937599.042  1958.033
      462102.883     5937625.484  1914.314        462152.753     5937669.188  1959.037
      462237.918     5937704.004  1914.721        462285.564     5937743.305  1963.059
      462386.846     5937793.072  1925.541        462426.581     5937824.442  1972.576
      462529.245     5937876.310  1928.839        462565.013     5937903.520  1976.054
      462671.269     5937959.004  1931.172        462706.216     5937984.703  1976.935

      457145.119     5934586.960  1709.439        457148.392     5934587.280  1750.672
      457284.535     5934667.892  1709.323        457289.691     5934668.423  1750.715
      457423.386     5934748.770  1708.341        457431.009     5934749.561  1749.637
      457561.787     5934829.610  1708.117        457572.825     5934830.738  1749.486
      457699.862     5934910.428  1708.978        457715.341     5934911.979  1750.639
      457837.788     5934991.243  1710.900        457858.715     5934993.290  1752.854
      457975.500     5935072.048  1713.277        458002.913     5935074.666  1755.538
      458113.349     5935152.875  1716.130        458147.935     5935156.101  1758.704
      458251.911     5935233.772  1719.432        458293.754     5935237.587  1762.340
      458390.939     5935314.717  1722.590        458439.682     5935319.060  1765.706
      458528.848     5935395.562  1724.480        458583.614     5935400.338  1767.494
      458664.692     5935476.226  1724.128        458726.073     5935481.493  1768.100
      458804.530     5935557.224  1724.136        458870.052     5935562.790  1767.623
      458952.494     5935638.897  1725.003        459023.153     5935644.875  1768.917
      459106.720     5935721.099  1725.413        459175.427     5935726.911  1766.025
      459251.887     5935802.554  1718.332        459318.616     5935808.181  1755.667