MAPUNITS
'METRES  ' /

MAPAXES
   0.000  100.000
   0.000    0.000
 100.000    0.000 /

GRIDUNIT
'METRES  ' '        ' /

SPECGRID
  4  2  3   1  F  /

GDORIENT
INC INC INC DOWN LEFT /

COORD
        0.000         0.000    1999.500         0.000         0.000    2003.100
       25.000         0.000    1999.500        25.000         0.000    2003.000
       50.000         0.000    2000.000        50.000         0.000    2003.000
       75.000         0.000    2000.000        75.000         0.000    2003.000
      100.000         0.000    2000.000       100.000         0.000    2003.000
        0.000        50.000    2000.000         0.000        50.000    2003.000
       25.000        50.000    2000.000        25.000        50.000    2003.000
       50.000        50.000    2000.000        50.000        50.000    2003.000
       75.000        50.000    2000.000        75.000        50.000    2003.000
      100.000        50.000    2000.000       100.000        50.000    2003.000
        0.000       100.000    2000.000         0.000       100.000    2003.000
       25.000       100.000    2000.000        25.000       100.000    2002.750
       50.000       100.000    2000.000        50.000       100.000    2003.000
       75.000       100.000    2000.000        75.000       100.000    2003.000
      100.000       100.000    2000.550       100.000       100.000    2003.200
  /

ZCORN
   1999.500    1999.500    2000.000    2000.000    2000.200    2000.200 
   2000.000    2000.000 
   2000.000    2000.000    2000.000    2000.000    2000.300    2000.300 
   2000.000    2000.000 
   2000.000    2000.000    2000.000    2000.000    2000.000    2000.000 
   2000.000    2000.000 
   2000.000    2000.000    2000.000    2000.000    2000.000    2000.000 
   2000.000    2000.550 
   2001.000    2001.250    2001.250    2001.500    2001.800    2001.850 
   2001.750    2002.000 
   2001.000    2001.125    2001.125    2001.250    2001.350    2001.475 
   2001.375    2001.500    2001.000    2001.125    2001.125    2001.250 
   2001.250    2001.375    2001.375    2001.500 
   2001.000    2001.000    2001.000    2001.000    2001.000    2001.000 
   2001.000    2001.000    2001.000    2001.250    2001.250    2001.500 
   2001.800    2001.850    2001.750    2002.000 
   2001.000    2001.125    2001.125    2001.250    2001.350    2001.475 
   2001.375    2001.500 
   2001.000    2001.125    2001.125    2001.250    2001.250    2001.375 
   2001.375    2001.500 
   2001.000    2001.000    2001.000    2001.000    2001.000    2001.000 
   2001.000    2001.000 
   2002.000    2002.000    2002.000    2002.000    2002.000    2002.000 
   2002.000    2002.000 
   2002.500    2002.375    2002.375    2002.250    2002.250    2002.125 
   2002.125    2002.000    2002.500    2002.375    2002.375    2002.250 
   2002.250    2002.125    2002.125    2002.000 
   2003.000    2002.750    2002.750    2002.500    2002.500    2002.250 
   2002.250    2002.000    2002.000    2002.000    2002.000    2002.000 
   2002.000    2002.000    2002.000    2002.000 
   2002.500    2002.375    2002.375    2002.250    2002.250    2002.125 
   2002.125    2002.000 
   2002.500    2002.375    2002.375    2002.250    2002.250    2002.125 
   2002.125    2002.000 
   2003.000    2002.750    2002.750    2002.500    2002.500    2002.250 
   2002.250    2002.000 
   2003.100    2003.000    2003.000    2003.000    2003.000    2003.000 
   2003.000    2003.000 
   2003.000    2003.000    2003.000    2003.000    2003.000    2003.000 
   2003.000    2003.000    2002.500    2002.375    2003.000    2003.000 
   2003.000    2003.000    2003.000    2002.500 
   2003.000    2002.750    2002.750    2003.000    2003.000    2003.000 
   2003.000    2003.200   /

ACTNUM
 1 1 1 1
 1 1 1 1
 0 1 1 1
 1 1 1 1
 1 1 1 1
 0 1 1 1
  /


PORO
      0.272895664       0.27415663      0.251092464      0.251518101
      0.292971313      0.284292638      0.265466243      0.238552555
                0      0.228572071      0.238153905      0.270052403
      0.215717793      0.233772233      0.202148736      0.212160796
       0.26551044      0.264326841      0.276744932      0.281817436
                0      0.250066787      0.275289714      0.318748355
  /

PERMX
       955.865601       989.789551       996.697449       1020.43445
       1086.76074       1028.96411       1019.71399       879.740417
                0       887.511108       923.718201       975.886536
        812.46344       808.213379       709.852905       822.415833
       974.800232       1063.92688       1128.89026       1075.70862
                0       1005.15997        1101.7395        1217.8125
  /

PERMY
       860.279053       890.810608        897.02771       918.390991
       978.084656       926.067688       917.742615       791.766357
                0        798.76001       831.346375       878.297852
       731.217102       727.392029       638.867615       740.174255
        877.32019        957.53418       1016.00122       968.137756
                0       904.643982       991.565552       1096.03125
  /

PERMZ
       86.0279007       89.0810623        89.702774       91.8391037
       97.8084641       92.6067734       91.7742615       79.1766357
                0       79.8759995       83.1346359       87.8297882
       73.1217117       72.7392044       63.8867607       74.0174255
       87.7320175        95.753418       101.600121       96.8137741
                0       90.4644012       99.1565552       109.603127
  /
