NOECHO

-- =============================================================================
-- 
-- Exported from banal5
-- 
-- Exported by user jriv from RMS11.1 at 2020-06-17 14:38:32
-- 
-- =============================================================================

SPECGRID
  4  2  3   1  F  /

COORD
        0.000         0.000       0.000         0.000         0.000       3.000
       25.000         0.000       0.000        25.000         0.000       3.000
       50.000         0.000       0.000        50.000         0.000       3.000
       75.000         0.000       0.000        75.000         0.000       3.000
      100.000         0.000       0.000       100.000         0.000       3.000
        0.000        50.000       0.000         0.000        50.000       3.000
       25.000        50.000       0.000        25.000        50.000       3.000
       50.000        50.000       0.000        50.000        50.000       3.000
       75.000        50.000       0.000        75.000        50.000       3.000
      100.000        50.000       0.000       100.000        50.000       3.000
        0.000       100.000       0.000         0.000       100.000       3.000
       25.000       100.000       0.000        25.000       100.000       3.000
       50.000       100.000       0.000        50.000       100.000       3.000
       75.000       100.000       0.000        75.000       100.000       3.000
      100.000       100.000       0.000       100.000       100.000       3.000
  /

ZCORN
      0.000       0.000       0.000       0.000       0.000       0.000 
      0.000       0.000 
      0.000       0.000       0.000       0.000       0.000       0.000 
      0.000       0.000 
      0.000       0.000       0.000       0.000       0.000       0.000 
      0.000       0.000 
      0.000       0.000       0.000       0.000       0.000       0.000 
      0.000       0.000 
      1.000       1.250       1.250       1.500       1.500       1.750 
      1.750       2.000 
      1.000       1.125       1.125       1.250       1.250       1.375 
      1.375       1.500       1.000       1.125       1.125       1.250 
      1.250       1.375       1.375       1.500 
      1.000       1.000       1.000       1.000       1.000       1.000 
      1.000       1.000       1.000       1.250       1.250       1.500 
      1.500       1.750       1.750       2.000 
      1.000       1.125       1.125       1.250       1.250       1.375 
      1.375       1.500 
      1.000       1.125       1.125       1.250       1.250       1.375 
      1.375       1.500 
      1.000       1.000       1.000       1.000       1.000       1.000 
      1.000       1.000 
      2.000       2.000       2.000       2.000       2.000       2.000 
      2.000       2.000 
      2.500       2.375       2.375       2.250       2.250       2.125 
      2.125       2.000       2.500       2.375       2.375       2.250 
      2.250       2.125       2.125       2.000 
      3.000       2.750       2.750       2.500       2.500       2.250 
      2.250       2.000       2.000       2.000       2.000       2.000 
      2.000       2.000       2.000       2.000 
      2.500       2.375       2.375       2.250       2.250       2.125 
      2.125       2.000 
      2.500       2.375       2.375       2.250       2.250       2.125 
      2.125       2.000 
      3.000       2.750       2.750       2.500       2.500       2.250 
      2.250       2.000 
      3.000       3.000       3.000       3.000       3.000       3.000 
      3.000       3.000 
      3.000       3.000       3.000       3.000       3.000       3.000 
      3.000       3.000       3.000       3.000       3.000       3.000 
      3.000       3.000       3.000       3.000 
      3.000       3.000       3.000       3.000       3.000       3.000 
      3.000       3.000   /

ACTNUM
 1 1 1 1
 1 1 1 1
 1 1 1 1
 1 1 1 1
 1 1 1 1
 1 1 1 1
  /


ECHO
