NOECHO

-- =============================================================================
--
-- This is banal6
-- =============================================================================

SPECGRID
  4  2  3   1  F  /

COORD
        0.000         0.000       0.000         0.000         0.000       3.000
       25.000         0.000       0.000        25.000         0.000       3.000
       50.000         0.000       0.000        50.000         0.000       3.000
       75.000         0.000       0.000        75.000         0.000       3.000
      100.000         0.000       0.000       100.000         0.000       3.000
        0.000        50.000       0.000         0.000        50.000       3.000
       25.000        50.000       0.000        25.000        50.000       3.000
       50.000        50.000       0.000        50.000        50.000       3.000
       75.000        50.000       0.000        75.000        50.000       3.000
      100.000        50.000       0.000       100.000        50.000       3.000
        0.000       100.000       0.000         0.000       100.000       3.000
       25.000       100.000       0.000        25.000       100.000       3.000
       50.000       100.000       0.000        50.000       100.000       3.000
       75.000       100.000       0.000        75.000       100.000       3.000
      100.000       100.000       0.000       100.000       100.000       3.000
  /

ZCORN
     -- top layer 1 running in NX dir fastest
     -0.500      -0.500       0.000       0.000       0.200       0.200   0.000       0.000
      0.000       0.000       0.000       0.000       0.300       0.300   0.000       0.000
      0.000       0.000       0.000       0.000       0.000       0.000   0.000       0.000
      0.000       0.000       0.000       0.000       0.000       0.000   0.000       0.5500

      -- base layer 1
      1.000       1.250       1.250       1.500       1.800       1.850   1.750       2.000
      1.000       1.125       1.125       1.250       1.350       1.475   1.375       1.500
      1.000       1.125       1.125       1.250       1.250       1.375   1.375       1.500
      1.000       1.000       1.000       1.000       1.000       1.000   1.000       1.000

      -- top layer 2 usually identical to base layer 1
      1.000       1.250       1.250       1.500       1.800       1.850   1.750       2.000
      1.000       1.125       1.125       1.250       1.350       1.475   1.375       1.500
      1.000       1.125       1.125       1.250       1.250       1.375   1.375       1.500
      1.000       1.000       1.000       1.000       1.000       1.000   1.000       1.000

      -- base layer 2
      2.000       2.000       2.000       2.000       2.000       2.000   2.000       2.000
      2.500       2.375       2.375       2.250       2.250       2.125   2.125       2.000
      2.500       2.375       2.375       2.250       2.250       2.125   2.125       2.000
      3.000       2.750       2.750       2.500       2.500       2.250   2.250       2.000

      -- top layer 3
      2.000       2.000       2.000       2.000       2.000       2.000   2.000       2.000
      2.500       2.375       2.375       2.250       2.250       2.125   2.125       2.000
      2.500       2.375       2.375       2.250       2.250       2.125   2.125       2.000
      3.000       2.750       2.750       2.500       2.500       2.250   2.250       2.000

      -- base layer 3
      3.100       3.000       3.000       3.000       3.000       3.000   3.000       3.000
      3.000       3.000       3.000       3.000       3.000       3.000   3.000       3.000
      3.000       3.000       3.000       3.000       3.000       3.000   3.000       3.000
      3.000       3.000       3.000       3.000       3.000       3.000   3.000       3.200   /


ACTNUM
 1 1 1 1
 1 1 1 1
 1 1 1 1
 1 1 1 1
 1 1 1 1
 1 1 1 1
  /


ECHO
