SPECGRID
  1  1  3   1  F  /

COORD
   0.000   0.0       0.000    0.0   0.0       3.000
   100.0   0.0       0.000    100.0   0.0       3.000
   0.0   100.0       0.000    0.0   100.0       3.000
   100.0   100.0       0.000    100.0   100.0       3.000
  /

ZCORN
      0.000       0.000  0.000       0.000
      1.000       2.000  2.000       1.000
      1.000       2.000  2.000       1.000
      2.000       2.000  2.000       2.000
      2.000       2.000  2.000       2.000
      3.000       3.000  3.000       3.000   /

ACTNUM
 1
 1
 1
  /
