SPECGRID
  1  1  2   1  F  /

COORD
     0.0     0.0  0.0          0.0     0.0   5.0
     0.0   100.0  0.0          0.0   100.0   5.0
   100.0     0.0  0.0        100.0     0.0   5.0
   100.0   100.0  0.0        100.0   100.0   5.0
  /

ZCORN

   0.0   0.0   0.0   0.0   0.0
   1.0   1.0   1.0   1.0   1.0
   1.0   1.0   1.0   1.0   1.0
   2.0   2.0   2.0   2.0   2.0
   2.0   2.0   2.0   2.0   2.0
   3.0   3.0   3.0   3.0   3.0

ACTNUM
 1
 1
  /
