SPECGRID
      5      3      1      1
/

COORD
            0.000            0.000           -0.000            0.000            0.000         1000.000
            1.000            0.000           -0.000            1.000            0.000         1000.000
            2.000            0.000           -0.000            2.000            0.000         1000.000
            3.000            0.000           -0.000            3.000            0.000         1000.000
            4.000            0.000           -0.000            4.000            0.000         1000.000
            6.000           -0.500           -0.000            6.000           -0.500         1000.000
            0.000            1.000           -0.000            0.000            1.000         1000.000
            1.000            1.000           -0.000            1.000            1.000         1000.000
            2.000            1.000           -0.000            2.000            1.000         1000.000
            3.000            1.000           -0.000            3.000            1.000         1000.000
            4.000            1.000           -0.000            4.000            1.000         1000.000
            5.000            1.000           -0.000            5.000            1.000         1000.000
            0.000            2.000           -0.000            0.000            2.000         1000.000
            1.000            2.000           -0.000            1.000            2.000         1000.000
            2.000            2.000           -0.000            2.000            2.000         1000.000
            3.000            2.000           -0.000            3.000            2.000         1000.000
            4.200            2.200           -0.000            4.100            2.100         1000.000
            5.000            2.000           -0.000            5.000            2.000         1000.000
            0.000            3.000           -0.000            0.000            3.000         1000.000
            1.000            3.000           -0.000            1.000            3.000         1000.000
            2.000            3.000           -0.000            2.000            3.000         1000.000
            3.000            3.000           -0.000            3.000            3.000         1000.000
            4.000            3.000           -0.000            4.000            3.000         1000.000
            4.500            3.300           -0.000            4.700            3.400         1000.000
/

ZCORN
     1000.000     1000.000     1000.000     998.000      1000.000     1000.000
     1000.000     1000.000     1000.000     1000.000     1000.000     1000.000
     1000.000     1000.000     1000.000     1000.000     1000.000     1000.000
     1000.000     1000.000     1000.000     1000.000     1000.000     1000.000
     1000.000     1000.000     1000.000     1000.000     1000.000     1000.000
     1000.000     1000.000     1000.000     1000.000     1000.000     1000.000
     1000.000     1000.000     1000.000     1000.000     1000.000     1000.000
     1000.000     1000.000     1000.000     1000.000     1000.000     1000.000
     1000.000     1000.000     1000.000     1000.000     1000.000     1000.000
     1000.000     1000.000     1000.000     1000.000     1000.000     1000.000
     1001.000     1001.000     1001.000     1001.000     1001.000     1001.000
     1001.000     1001.000     1001.000     1001.000     1001.000     1001.000
     1001.000     1001.000     1001.000     1001.000     1001.000     1001.000
     1001.000     1001.000     1001.000     1001.000     1001.000     1001.000
     1001.000     1001.000     1001.000     1001.000     1001.000     1001.000
     1001.000     1001.000     1001.000     1001.000     1001.000     1001.000
     1001.000     1001.000     1001.000     1001.000     1001.000     1001.000
     1001.000     1001.000     1001.000     1001.000     1001.000     1001.000
     1001.000     1001.000     1001.000     1001.000     1001.000     1001.000
     1001.000     1001.000     1001.000     1001.000     1001.000     1003.000
/

ACTNUM
  1  1  0  1  1  1  1  1  1  1  0  1
  1  1  1
/
