SPECGRID
  2  1  3   1  F  /

COORD
      500.000      1500.000     500.000       500.000      1500.000    1000.000
     1000.000      1400.000     500.000      1000.000      1400.000    1000.000
     1500.000      1400.000     500.000      1500.000      1450.000    1000.000
      500.000      1000.000     500.000       500.000      1000.000    1000.000
     1000.000      1000.000     500.000      1000.000      1000.000    1000.000
     1500.000      1000.000     500.000      1500.000      1000.000    1000.000
  /

ZCORN
    500.000     500.000     500.000     500.000 
    500.000     500.000     480.000     500.000 
    700.000     700.000     600.000     700.000 
    700.000     690.000     700.000     700.000     700.000     700.000 
    600.000     700.000 
    700.000     690.000     700.000     700.000 
    800.000     800.000     800.000     800.000 
    800.000     800.000     800.000     800.000     800.000     800.000 
    800.000     800.000 
    800.000     800.000     800.000     800.000 
   1000.000    1000.000    1200.000    1100.000 
   1000.000    1000.000    1000.000    1000.000   /

ACTNUM
 1 1
 1 1
 1 1
  /

