NOECHO

-- =============================================================================
-- 
-- Exported from sixcells_described_hdr1
-- 
-- Exported by user jriv from RMS12 at 2021-06-07 10:30:16
-- 
-- =============================================================================

MAPUNITS
'METRES  ' /

MAPAXES
465035.979 5931386.500
465035.979 5931275.500
465126.562 5931275.500 /

GRIDUNIT
'METRES  ' '        ' /

SPECGRID
  1  2  3   1  F  /

GDORIENT
INC INC INC DOWN RIGHT /

COORD
        0.458        91.500    1673.497        -0.229        89.500    1674.687
       41.864       111.000    1678.628        41.146       109.000    1679.843
       25.396        47.000    1675.648        24.708        45.000    1676.841
       66.302        65.500    1681.522        65.552        63.500    1682.736
       50.021         2.000    1678.571        49.302         0.000    1679.764
       90.583        20.000    1684.797        89.833        18.000    1686.012
  /

ZCORN
   1673.497    1678.628 
   1675.648    1681.522 
   1675.648    1681.522 
   1678.571    1684.797 
   1673.894    1679.033 
   1676.046    1681.927    1676.046    1681.927 
   1678.969    1685.202    1673.894    1679.033 
   1676.046    1681.927 
   1676.046    1681.927 
   1678.969    1685.202 
   1674.290    1679.438 
   1676.443    1682.331    1676.443    1682.331 
   1679.366    1685.607    1674.290    1679.438 
   1676.443    1682.331 
   1676.443    1682.331 
   1679.366    1685.607 
   1674.290    1679.438 
   1676.443    1682.331    1676.841    1682.736 
   1679.764    1686.012   /

ACTNUM
 1
 1
 1
 1
 0
 1
  /


ECHO
