SPECGRID
  1  2  1   1  F  /

COORD
   465036.446   5931366.812    1673.497    465035.756   5931364.894    1674.687
   465077.846   5931386.670    1678.628    465077.136   5931384.612    1679.843
   465061.388   5931322.431    1675.648    465060.681   5931320.563    1676.841
   465102.273   5931341.110    1681.522    465101.545   5931339.110    1682.736
   465085.989   5931277.281    1678.571    465085.269   5931275.467    1679.764
   465126.573   5931295.411    1684.797    465125.828   5931293.461    1686.012
  /

ZCORN
   1673.497    1678.628 
   1675.648    1681.522 
   1675.648    1681.522 
   1678.571    1684.797 
   1674.687    1679.843 
   1676.841    1682.736    1676.841    1682.736 
   1679.764    1686.012   /

ACTNUM
 1
 1
  /

