SPECGRID
  40  64  14   1  F  /

COORD
   456511.062   5935688.063    1718.658    456510.557   5935687.765    1760.211
   456651.281   5935769.017    1719.475    456651.177   5935768.957    1762.452
   456791.439   5935849.937    1720.607    456791.861   5935850.180    1763.233
   456931.502   5935930.802    1722.093    456932.620   5935931.448    1766.412
   457071.471   5936011.614    1726.621    457073.585   5936012.834    1773.075
   457211.380   5936092.390    1731.924    457214.666   5936094.287    1777.423
   457351.097   5936173.055    1734.680    457356.201   5936176.004    1784.534
   457490.648   5936253.625    1734.637    457497.675   5936257.685    1786.651
   457630.202   5936334.196    1732.990    457639.300   5936339.452    1786.640
   457769.499   5936414.618    1729.926    457781.009   5936421.267    1785.222
   457908.451   5936494.841    1726.902    457922.748   5936503.102    1782.803
   458047.618   5936575.189    1726.296    458063.240   5936584.215    1775.430
   458187.023   5936655.673    1727.671    458204.129   5936665.557    1771.452
   458326.473   5936736.185    1729.495    458343.156   5936745.825    1765.536
   458464.973   5936816.147    1728.868    458483.479   5936826.841    1763.985
   458604.232   5936896.546    1728.571    458626.086   5936909.175    1766.798
   458743.124   5936976.736    1726.759    458767.347   5936990.732    1767.629
   458882.405   5937057.149    1725.610    458910.881   5937073.604    1773.651
   459022.179   5937137.847    1727.334    459055.668   5937157.199    1784.100
   459163.400   5937219.383    1733.779    459197.678   5937239.189    1791.475
   459304.879   5937301.067    1742.572    459340.223   5937321.486    1799.490
   459445.440   5937382.221    1750.422    459481.052   5937402.792    1804.816
   459584.032   5937462.237    1753.428    459619.965   5937482.991    1806.338
   459722.651   5937542.271    1753.880    459758.337   5937562.877    1804.873
   459865.604   5937624.806    1757.199    459899.140   5937644.170    1802.761
   460009.089   5937707.648    1758.487    460039.497   5937725.203    1798.886
   460148.897   5937788.368    1754.637    460177.002   5937804.592    1793.081
   460285.367   5937867.160    1750.318    460316.983   5937885.408    1795.401
   460421.250   5937945.614    1751.045    460455.485   5937965.372    1802.446
   460559.152   5938025.234    1758.954    460591.787   5938044.066    1811.945
   460698.515   5938105.699    1774.532    460730.595   5938124.208    1829.006
   460843.209   5938189.236    1802.900    460879.412   5938210.125    1863.334
   460985.539   5938271.410    1826.331    461023.519   5938293.324    1887.457
   461121.859   5938350.115    1834.867    461158.994   5938371.542    1895.608
   461267.782   5938434.360    1858.674    461300.677   5938453.343    1913.545
   461414.932   5938519.315    1885.321    461442.593   5938535.279    1931.179
   461556.116   5938600.827    1897.511    461581.135   5938615.267    1938.542
   461695.077   5938681.055    1900.748    461718.393   5938694.513    1942.577
   461836.095   5938762.473    1904.830    461857.839   5938775.023    1950.536
   461978.484   5938844.679    1912.935    461998.507   5938856.239    1961.554
   462118.378   5938925.464    1916.394    462136.116   5938935.653    1964.631
   456590.382   5935550.411    1717.338    456590.241   5935550.181    1757.186
   456730.558   5935631.368    1718.236    456730.944   5935631.367    1761.089
   456870.624   5935712.283    1718.159    456871.702   5935712.589    1762.417
   457010.443   5935793.098    1717.234    457012.428   5935793.802    1762.871
   457150.365   5935873.934    1723.748    457153.762   5935875.248    1773.049
   457290.244   5935954.751    1730.055    457294.758   5935956.581    1774.160
   457429.957   5936035.498    1733.912    457436.903   5936038.393    1783.236
   457569.519   5936116.178    1734.994    457578.658   5936120.059    1785.438
   457708.789   5936196.731    1732.920    457720.927   5936201.950    1787.282
   457848.182   5936277.333    1731.281    457862.015   5936283.337    1782.029
   457987.245   5936357.792    1729.437    458005.024   5936365.563    1782.601
   458125.921   5936438.079    1727.725    458145.777   5936446.805    1776.502
   458264.598   5936518.365    1727.466    458286.100   5936527.854    1772.081
   458402.977   5936598.519    1727.399    458420.389   5936606.229    1759.019
   458540.954   5936678.487    1726.332    458563.487   5936688.505    1762.928
   458681.765   5936759.707    1728.337    458709.636   5936772.166    1769.797
   458819.776   5936839.661    1725.115    458848.930   5936852.791    1766.171
   458959.882   5936920.542    1725.052    458993.263   5936935.715    1770.903
   459097.855   5937000.414    1724.055    459138.154   5937018.968    1778.620
   459238.839   5937081.612    1729.425    459281.134   5937101.451    1785.483
   459380.422   5937163.056    1737.144    459423.767   5937183.884    1792.489
   459521.342   5937244.149    1744.295    459565.015   5937265.752    1798.425
   459660.829   5937324.466    1748.164    459704.583   5937346.844    1802.210
   459800.427   5937404.755    1749.769    459844.838   5937428.310    1804.759
   459944.119   5937487.233    1753.531    459983.005   5937508.637    1800.646
   460088.866   5937570.441    1755.911    460124.349   5937590.672    1798.226
   460226.926   5937649.890    1750.612    460258.409   5937668.420    1789.165
   460361.714   5937727.286    1745.406    460398.023   5937749.264    1791.643
   460497.505   5937805.144    1747.616    460535.001   5937828.407    1798.340
   460635.748   5937884.460    1758.267    460671.964   5937907.420    1811.591
   460773.151   5937963.257    1772.294    460808.825   5937986.215    1828.168
   460921.282   5938049.099    1806.396    460961.734   5938075.351    1869.809
   461063.384   5938131.216    1830.081    461104.275   5938157.816    1892.671
   461200.388   5938210.166    1839.988    461236.289   5938233.424    1896.069
   461349.053   5938296.750    1867.681    461379.946   5938316.569    1916.223
   461500.136   5938384.768    1898.626    461527.033   5938401.823    1939.756
   461635.134   5938462.505    1900.194    461662.932   5938479.958    1942.426
   461770.667   5938540.625    1897.760    461797.839   5938557.531    1942.734
   461912.444   5938622.646    1902.470    461937.954   5938638.376    1951.585
   462056.953   5938706.302    1913.491    462079.318   5938719.987    1963.178
   462196.618   5938786.959    1916.138    462216.753   5938799.167    1965.063
   456669.695   5935412.757    1714.437    456669.910   5935412.622    1750.193
   456809.806   5935493.707    1715.616    456810.614   5935493.785    1752.761
   456949.689   5935574.598    1714.390    456951.396   5935574.973    1756.454
   457089.418   5935655.428    1716.122    457092.392   5935656.224    1762.240
   457229.291   5935736.287    1722.744    457234.085   5935737.688    1772.578
   457368.748   5935817.020    1726.173    457375.808   5935819.188    1777.626
   457508.524   5935897.847    1731.514    457517.003   5935900.532    1777.302
   457647.397   5935978.384    1730.754    457660.053   5935982.476    1784.426
   457787.192   5936059.216    1732.467    457802.827   5936064.347    1786.611
   457927.050   5936140.072    1733.131    457943.572   5936145.555    1780.046
   458066.638   5936220.839    1732.885    458085.970   5936227.312    1777.798
   458206.565   5936301.723    1733.863    458229.346   5936309.403    1778.209
   458343.179   5936381.489    1729.933    458367.276   5936389.656    1770.985
   458479.694   5936461.213    1727.186    458501.281   5936468.565    1760.620
   458616.216   5936540.926    1724.338    458645.913   5936551.100    1766.174
   458756.257   5936621.826    1724.917    458789.669   5936633.373    1767.360
   458895.558   5936702.453    1723.450    458935.612   5936716.466    1770.324
   459040.718   5936785.135    1728.688    459085.052   5936800.904    1777.724
   459179.076   5936865.368    1728.176    459222.066   5936881.045    1773.802
   459315.006   5936944.552    1727.536    459364.043   5936963.124    1777.526
   459453.306   5937024.404    1730.485    459505.185   5937045.072    1781.846
   459592.775   5937104.511    1734.480    459642.935   5937125.764    1784.097
   459735.759   5937185.999    1740.691    459787.704   5937209.618    1793.751
   459880.742   5937268.500    1747.438    459930.295   5937292.807    1799.925
   460022.633   5937349.632    1749.051    460068.986   5937374.162    1798.642
   460163.534   5937430.308    1747.708    460208.715   5937455.961    1796.183
   460305.129   5937511.465    1747.994    460343.867   5937534.863    1790.575
   460440.543   5937588.783    1745.450    460482.157   5937615.299    1792.555
   460577.653   5937666.920    1751.144    460615.306   5937692.101    1796.503
   460711.791   5937742.768    1758.635    460754.262   5937772.476    1814.227
   460865.007   5937832.117    1796.330    460909.176   5937863.986    1858.815
   461008.415   5937914.831    1823.818    461047.659   5937943.642    1881.136
   461139.857   5937989.106    1832.614    461179.349   5938018.237    1890.261
   461282.372   5938072.004    1851.402    461313.229   5938094.521    1897.317
   461437.349   5938164.105    1888.111    461463.381   5938182.633    1925.922
   461578.835   5938246.313    1902.422    461611.093   5938268.631    1946.636
   461707.605   5938319.709    1894.742    461746.467   5938346.026    1948.057
   461846.858   5938400.272    1897.187    461884.707   5938425.463    1954.241
   461990.846   5938483.946    1905.206    462020.658   5938503.448    1957.579
   462132.095   5938565.737    1908.698    462156.018   5938581.138    1956.953
   462273.336   5938647.452    1913.704    462295.200   5938661.322    1961.124
   456748.958   5935275.097    1710.284    456749.537   5935275.050    1745.025
   456888.937   5935356.031    1711.121    456890.239   5935356.193    1747.326
   457028.773   5935436.927    1713.206    457031.101   5935437.366    1752.736
   457168.558   5935517.806    1717.565    457172.327   5935518.625    1760.045
   457307.621   5935598.516    1717.475    457313.528   5935599.889    1763.789
   457447.377   5935679.381    1724.435    457455.864   5935681.431    1772.525
   457586.843   5935760.178    1728.650    457597.625   5935762.846    1774.583
   457725.228   5935840.705    1727.700    457739.803   5935844.370    1776.648
   457864.277   5935921.394    1728.327    457881.825   5935925.858    1776.475
   458003.010   5936002.000    1727.590    458023.701   5936007.315    1774.214
   458143.340   5936083.016    1730.059    458165.911   5936088.861    1771.959
   458282.969   5936163.854    1731.239    458308.925   5936170.622    1772.348
   458421.914   5936244.517    1732.252    458452.448   5936252.525    1775.744
   458558.824   5936324.640    1730.702    458589.260   5936332.673    1771.337
   458695.162   5936404.600    1727.687    458729.598   5936413.761    1770.015
   458833.967   5936485.197    1725.777    458872.922   5936495.680    1768.052
   458976.982   5936566.924    1727.377    459019.943   5936578.678    1769.206
   459119.667   5936648.572    1728.681    459168.153   5936662.157    1771.889
   459258.504   5936729.097    1728.424    459310.288   5936744.139    1771.343
   459389.812   5936807.157    1724.313    459446.345   5936824.540    1768.679
   459523.547   5936885.438    1723.062    459593.159   5936908.564    1776.560
   459665.640   5936966.104    1727.506    459729.503   5936989.417    1777.906
   459806.181   5937045.964    1729.359    459863.081   5937069.097    1777.399
   459952.291   5937128.087    1735.140    459997.379   5937148.648    1775.849
   460097.285   5937210.070    1739.360    460148.117   5937236.034    1787.215
   460241.184   5937291.899    1742.212    460296.514   5937323.264    1796.327
   460382.795   5937372.718    1744.276    460435.540   5937405.424    1797.193
   460520.479   5937451.044    1745.870    460569.273   5937483.708    1795.497
   460657.857   5937528.843    1753.418    460708.232   5937564.982    1807.977
   460795.792   5937606.595    1767.322    460849.391   5937647.724    1830.076
   460957.416   5937702.997    1814.862    461008.337   5937744.120    1880.507
   461092.230   5937778.363    1832.056    461136.453   5937815.339    1894.096
   461222.731   5937850.504    1841.964    461265.474   5937886.701    1903.148
   461370.422   5937938.170    1871.447    461404.203   5937966.244    1919.379
   461523.392   5938030.467    1903.799    461549.302   5938051.001    1938.325
   461652.361   5938103.688    1900.330    461689.325   5938131.467    1945.752
   461784.454   5938179.391    1896.912    461831.906   5938213.768    1955.220
   461926.915   5938262.415    1902.886    461969.072   5938292.175    1960.325
   462070.651   5938346.160    1910.491    462103.427   5938368.750    1962.754
   462209.956   5938426.747    1910.606    462236.423   5938444.584    1959.041
   462351.047   5938508.465    1914.554    462375.951   5938524.917    1962.836
   456828.222   5935137.430    1708.592    456829.244   5935137.470    1745.498
   456968.188   5935218.373    1711.214    456970.122   5935218.629    1749.288
   457108.102   5935299.306    1715.563    457111.342   5935299.847    1756.717
   457247.844   5935380.211    1719.445    457253.312   5935381.209    1766.719
   457386.918   5935460.990    1720.089    457394.164   5935462.370    1764.789
   457526.061   5935541.777    1723.207    457536.284   5935543.770    1769.984
   457664.630   5935622.453    1724.456    457677.423   5935624.979    1769.018
   457802.613   5935703.011    1723.941    457819.285   5935706.331    1769.829
   457940.771   5935783.599    1723.717    457959.981   5935787.451    1766.986
   458078.526   5935864.103    1722.632    458102.515   5935868.943    1767.233
   458216.937   5935944.733    1722.982    458244.040   5935950.237    1764.900
   458357.762   5936025.853    1726.933    458394.021   5936033.262    1775.492
   458497.719   5936106.795    1730.154    458537.981   5936115.081    1779.299
   458638.767   5936187.964    1733.883    458678.647   5936196.240    1779.960
   458778.977   5936268.959    1734.450    458821.580   5936277.897    1779.676
   458918.196   5936349.751    1731.183    458965.001   5936359.712    1774.719
   459057.556   5936430.564    1727.698    459108.361   5936441.606    1769.359
   459192.619   5936510.399    1722.346    459252.946   5936523.915    1766.358
   459337.690   5936592.430    1726.333    459404.120   5936607.984    1769.779
   459467.257   5936670.548    1721.843    459537.275   5936688.221    1764.891
   459596.622   5936747.852    1717.932    459677.369   5936770.482    1767.295
   459737.033   5936827.558    1719.507    459827.338   5936856.229    1777.488
   459882.309   5936908.571    1722.773    459944.960   5936931.489    1767.028
   460023.053   5936987.764    1722.527    460076.338   5937010.413    1763.932
   460172.369   5937070.894    1729.353    460238.113   5937103.312    1784.620
   460322.211   5937155.447    1738.115    460385.246   5937191.082    1794.914
   460460.016   5937233.688    1738.109    460519.846   5937271.723    1793.531
   460599.519   5937312.742    1742.832    460655.410   5937351.995    1794.833
   460740.319   5937392.519    1754.706    460798.118   5937436.873    1812.791
   460880.134   5937471.018    1771.267    460942.337   5937522.954    1840.943
   461023.411   5937551.646    1794.590    461095.126   5937616.499    1884.039
   461176.809   5937642.025    1834.841    461220.266   5937684.318    1896.987
   461318.308   5937722.797    1862.929    461354.207   5937758.811    1915.985
   461466.685   5937812.248    1897.112    461499.178   5937843.882    1942.943
   461602.429   5937890.712    1906.718    461634.151   5937919.210    1946.711
   461725.554   5937959.435    1897.644    461764.368   5937991.283    1941.365
   461861.610   5938038.870    1899.281    461905.121   5938072.469    1947.527
   462007.801   5938125.213    1909.144    462050.279   5938156.782    1961.318
   462148.405   5938206.943    1912.404    462188.756   5938236.018    1970.325
   462288.869   5938288.427    1914.467    462324.014   5938313.065    1972.546
   462430.177   5938370.383    1918.189    462461.777   5938391.999    1972.968
   456907.428   5934999.762    1705.823    456908.909   5934999.887    1744.477
   457047.212   5935080.692    1707.463    457049.775   5935081.028    1746.624
   457186.992   5935161.621    1712.117    457190.891   5935162.200    1751.356
   457326.548   5935242.521    1715.960    457333.846   5935243.658    1766.423
   457466.165   5935323.434    1720.836    457474.910   5935324.823    1764.683
   457605.057   5935404.235    1722.893    457616.942   5935406.136    1768.174
   457744.269   5935485.091    1726.307    457761.135   5935487.794    1775.914
   457880.829   5935565.522    1722.541    457900.419   5935568.664    1768.248
   458018.045   5935646.059    1721.213    458040.896   5935649.727    1765.168
   458155.463   5935726.622    1720.626    458183.505   5935731.134    1765.627
   458292.251   5935807.076    1719.489    458324.559   5935812.297    1763.063
   458433.153   5935888.188    1723.911    458470.424   5935894.248    1767.841
   458576.107   5935969.632    1730.799    458618.263   5935976.544    1776.226
   458714.725   5936050.361    1731.296    458763.649   5936058.475    1781.062
   458859.738   5936132.157    1735.065    458910.312   5936140.664    1782.038
   459002.976   5936213.685    1733.482    459054.367   5936222.481    1775.245
   459138.228   5936293.845    1725.230    459196.219   5936304.031    1766.319
   459272.501   5936373.783    1719.118    459342.476   5936386.532    1762.129
   459408.351   5936453.888    1717.171    459495.560   5936470.592    1762.850
   459543.156   5936533.418    1716.043    459630.066   5936551.684    1759.429
   459668.493   5936610.099    1710.463    459758.406   5936631.627    1756.405
   459811.843   5936690.291    1712.699    459907.495   5936716.932    1764.702
   459957.058   5936770.780    1714.274    460036.340   5936796.951    1762.345
   460098.788   5936849.877    1713.645    460169.763   5936877.937    1761.988
   460244.167   5936930.375    1716.240    460312.188   5936962.581    1768.021
   460392.853   5937013.238    1723.214    460450.497   5937045.543    1771.189
   460530.674   5937090.430    1723.657    460589.094   5937128.326    1773.770
   460665.867   5937165.206    1725.686    460726.393   5937209.646    1778.235
   460814.153   5937249.611    1743.640    460872.786   5937297.571    1799.715
   460957.400   5937329.908    1761.592    461012.765   5937380.074    1823.095
   461096.828   5937404.695    1777.293    461182.755   5937491.817    1884.809
   461270.105   5937515.666    1843.645    461306.011   5937557.510    1898.945
   461418.491   5937604.043    1885.394    461446.500   5937638.451    1930.455
   461559.269   5937685.793    1911.325    461585.269   5937715.767    1949.307
   461684.567   5937753.036    1909.288    461715.470   5937784.510    1947.479
   461809.516   5937823.419    1904.715    461846.389   5937856.317    1943.750
   461944.940   5937903.060    1906.970    461985.129   5937935.892    1947.750
   462085.921   5937985.973    1911.494    462126.882   5938017.733    1956.858
   462225.997   5938067.556    1913.966    462265.361   5938096.946    1964.865
   462367.672   5938150.047    1917.826    462406.490   5938178.130    1975.539
   462510.164   5938232.925    1922.523    462545.187   5938257.563    1976.812
   456986.683   5934862.101    1704.816    456988.565   5934862.299    1744.033
   457126.317   5934943.029    1705.707    457129.500   5934943.431    1745.872
   457265.848   5935023.946    1709.018    457270.596   5935024.579    1748.483
   457405.297   5935104.857    1713.062    457412.691   5935105.856    1755.187
   457544.466   5935185.739    1716.351    457554.501   5935187.090    1758.051
   457683.189   5935266.566    1718.817    457698.010   5935268.545    1766.593
   457822.761   5935347.512    1723.849    457843.810   5935350.295    1777.380
   457959.480   5935428.086    1721.597    457983.756   5935431.267    1770.863
   458097.562   5935508.839    1722.375    458127.497   5935512.740    1773.161
   458232.290   5935589.155    1718.135    458262.216   5935593.042    1761.148
   458370.009   5935669.851    1718.990    458406.353   5935674.575    1763.364
   458510.488   5935750.893    1723.284    458554.561   5935756.652    1770.352
   458650.825   5935831.905    1726.987    458694.947   5935837.727    1770.230
   458790.982   5935912.882    1728.256    458845.047   5935920.116    1778.219
   458935.499   5935994.449    1729.630    458991.050   5936002.010    1776.208
   459081.504   5936076.251    1728.136    459141.910   5936084.640    1772.270
   459223.927   5936157.594    1723.021    459293.848   5936167.584    1767.193
   459362.507   5936238.408    1717.947    459441.988   5936250.226    1760.803
   459481.665   5936316.128    1707.713    459588.598   5936333.102    1755.172
   459615.990   5936395.640    1705.630    459723.590   5936414.853    1753.609
   459748.116   5936474.081    1703.827    459847.305   5936494.600    1749.640
   459892.489   5936554.496    1706.854    459987.217   5936577.729    1753.040
   460035.778   5936634.346    1707.355    460118.674   5936658.976    1752.108
   460172.574   5936711.521    1703.612    460248.549   5936739.202    1749.812
   460316.562   5936790.622    1704.226    460384.004   5936820.851    1750.740
   460460.846   5936869.897    1706.406    460523.565   5936904.287    1754.510
   460597.721   5936944.876    1705.434    460654.994   5936982.393    1751.529
   460732.910   5937017.898    1707.939    460795.899   5937065.728    1760.091
   460879.831   5937100.011    1722.724    460937.089   5937149.172    1775.546
   461028.910   5937184.341    1742.495    461077.640   5937231.424    1795.741
   461173.743   5937261.994    1760.470    461274.087   5937375.852    1888.723
   461369.557   5937406.789    1864.265    461395.998   5937444.689    1909.562
   461510.496   5937485.143    1897.098    461537.996   5937526.942    1947.176
   461641.400   5937550.963    1907.928    461671.375   5937590.036    1953.252
   461763.212   5937613.198    1905.018    461794.353   5937647.241    1942.474
   461892.141   5937687.597    1907.953    461926.998   5937720.198    1942.802
   462027.107   5937767.026    1911.320    462062.137   5937796.619    1944.231
   462164.854   5937847.535    1913.592    462205.899   5937880.222    1955.024
   462310.736   5937933.687    1923.059    462347.658   5937961.903    1966.328
   462451.057   5938015.125    1926.087    462488.146   5938042.525    1975.659
   462592.526   5938097.255    1928.667    462627.571   5938122.371    1977.335
   457065.980   5934724.450    1704.683    457068.129   5934724.698    1742.661
   457205.409   5934805.370    1704.089    457208.570   5934805.754    1738.527
   457344.654   5934886.275    1705.993    457349.445   5934886.854    1740.089
   457484.137   5934967.217    1710.627    457490.906   5934968.022    1743.182
   457623.468   5935048.150    1714.537    457633.641   5935049.330    1749.984
   457760.577   5935128.839    1712.659    457773.881   5935130.344    1749.090
   457899.365   5935209.728    1716.809    457920.071   5935212.018    1762.856
   458037.890   5935290.594    1719.561    458062.623   5935293.277    1763.718
   458176.847   5935371.505    1722.173    458207.558   5935374.788    1768.974
   458314.560   5935452.283    1722.418    458353.065   5935456.354    1772.925
   458450.256   5935532.844    1720.572    458496.204   5935537.674    1772.499
   458589.173   5935613.730    1723.183    458637.154   5935618.781    1770.937
   458728.763   5935694.666    1725.517    458781.300   5935700.249    1773.548
   458869.921   5935775.753    1726.349    458928.378   5935782.065    1776.633
   459015.677   5935857.342    1726.403    459076.765   5935864.074    1773.845
   459163.865   5935939.238    1723.502    459229.246   5935946.608    1767.571
   459306.463   5936020.554    1715.781    459378.621   5936028.853    1757.366
   459410.866   5936097.415    1692.345    459534.122   5936111.916    1751.885
   459554.160   5936178.451    1693.159    459679.622   5936194.729    1746.819
   459702.345   5936260.026    1697.050    459814.369   5936277.138    1746.825
   459846.569   5936341.146    1702.012    459940.971   5936358.076    1744.603
   459974.365   5936418.691    1699.198    460080.620   5936441.600    1748.590
   460110.705   5936496.845    1697.940    460211.450   5936523.598    1748.382
   460248.688   5936574.392    1696.124    460345.080   5936606.194    1749.129
   460392.691   5936653.181    1696.689    460480.374   5936689.357    1750.587
   460535.162   5936730.593    1696.240    460601.801   5936765.617    1742.794
   460675.310   5936806.396    1696.651    460734.632   5936845.230    1741.942
   460811.366   5936879.354    1699.360    460871.956   5936926.434    1748.076
   460953.710   5936957.740    1708.670    461015.734   5937012.570    1764.523
   461102.460   5937042.350    1725.599    461155.209   5937094.997    1781.979
   461248.699   5937122.036    1745.211    461356.488   5937253.265    1882.777
   461394.768   5937196.384    1764.850    461472.512   5937320.933    1899.929
   461585.877   5937348.073    1881.873    461615.528   5937395.338    1935.997
   461717.950   5937412.189    1895.884    461749.266   5937452.950    1941.435
   461846.266   5937480.839    1904.552    461879.924   5937517.331    1942.799
   461979.598   5937558.034    1913.409    462013.474   5937589.708    1945.357
   462108.124   5937630.874    1912.141    462144.426   5937661.710    1944.155
   462243.340   5937709.094    1913.226    462287.837   5937744.834    1954.854
   462394.212   5937799.124    1927.958    462434.374   5937830.107    1970.956
   462534.802   5937880.663    1931.866    462571.714   5937908.173    1976.310
   462675.717   5937962.316    1933.274    462710.643   5937987.537    1977.174
   457145.487   5934586.828    1708.225    457148.329   5934587.170    1752.134
   457285.050   5934667.780    1708.415    457289.350   5934668.278    1750.084
   457424.228   5934748.700    1708.382    457429.745   5934749.310    1743.154
   457563.042   5934829.592    1708.585    457570.353   5934830.364    1739.069
   457701.735   5934910.486    1710.150    457712.515   5934911.576    1742.111
   457838.850   5934991.239    1709.337    457853.711   5934992.682    1743.824
   457977.275   5935072.135    1713.051    457995.135   5935073.806    1747.218
   458113.836   5935152.868    1713.032    458142.499   5935155.466    1757.828
   458254.060   5935233.939    1718.092    458292.424   5935237.319    1770.723
   458394.743   5935315.042    1722.374    458440.975   5935319.018    1777.924
   458532.300   5935395.870    1722.730    458582.406   5935400.103    1775.784
   458670.351   5935476.730    1724.159    458716.868   5935480.629    1768.191
   458808.382   5935557.563    1724.125    458859.433   5935561.870    1768.368
   458952.987   5935638.930    1725.907    459021.022   5935644.782    1780.754
   459104.435   5935720.906    1727.349    459166.964   5935726.443    1773.018
   459245.309   5935801.982    1716.211    459310.456   5935807.900    1757.345
   459388.647   5935883.318    1706.226    459463.894   5935890.179    1746.186
   459480.333   5935960.028    1676.482    459626.919   5935973.280    1741.154
   459631.422   5936041.393    1677.159    459746.083   5936053.936    1728.261
   459785.336   5936123.527    1683.943    459893.398   5936137.640    1733.328
   459930.594   5936204.873    1690.923    460039.777   5936221.783    1741.144
   460058.356   5936283.011    1690.412    460180.421   5936305.991    1747.131
   460196.007   5936361.983    1692.831    460304.200   5936387.373    1745.300
   460334.478   5936440.423    1694.343    460435.320   5936469.928    1745.989
   460468.789   5936516.515    1691.966    460576.699   5936555.656    1750.108
   460615.309   5936594.550    1692.667    460698.573   5936635.963    1746.034
   460758.392   5936671.335    1694.181    460824.872   5936714.725    1742.844
   460895.416   5936744.893    1695.794    460954.424   5936791.612    1742.732
   461040.588   5936827.036    1706.288    461102.833   5936882.081    1761.216
   461186.148   5936911.511    1720.141    461235.469   5936957.923    1769.844
   461296.169   5936956.255    1698.710    461368.274   5937034.457    1783.680
   461430.242   5937012.473    1701.795    461554.566   5937179.387    1877.914
   461645.902   5937186.624    1838.219    461686.689   5937239.561    1899.640
   461782.655   5937260.556    1866.705    461834.447   5937320.100    1933.965
   461919.265   5937339.005    1890.457    461973.859   5937394.360    1948.145
   462060.161   5937422.617    1908.966    462103.366   5937461.636    1947.705
   462191.049   5937496.798    1911.452    462235.393   5937533.837    1948.859
   462332.231   5937579.303    1919.343    462378.129   5937615.854    1959.975
   462477.974   5937664.938    1930.195    462516.418   5937694.431    1968.387
   462617.016   5937745.183    1932.953    462653.460   5937772.209    1973.189
   462757.836   5937826.684    1934.001    462792.182   5937851.362    1973.925
   457224.743   5934449.181    1708.208    457227.916   5934449.567    1751.843
   457364.191   5934530.136    1708.281    457368.920   5934530.656    1750.015
   457503.435   5934611.082    1708.696    457509.319   5934611.679    1742.481
   457641.397   5934691.920    1704.947    457649.935   5934692.728    1736.770
   457779.536   5934772.798    1705.312    457792.316   5934773.935    1738.332